
     Program BANDS v.7.2 starts on 31May2023 at 23:47:49 

     This program is part of the open-source Quantum ESPRESSO suite
     for quantum simulation of materials; please cite
         "P. Giannozzi et al., J. Phys.:Condens. Matter 21 395502 (2009);
         "P. Giannozzi et al., J. Phys.:Condens. Matter 29 465901 (2017);
         "P. Giannozzi et al., J. Chem. Phys. 152 154105 (2020);
          URL http://www.quantum-espresso.org", 
     in publications or presentations arising from this work. More details at
     http://www.quantum-espresso.org/quote

     Parallel version (MPI), running on     1 processors

     MPI processes distributed on     1 nodes
     152 MiB available memory on the printing compute node when the environment starts


     Reading xml data from directory:

     ./tmp/silicon.save/
     file Si.pbe-n-kjpaw_psl.1.0.0.UPF: wavefunction(s)  3S 3P renormalized

     IMPORTANT: XC functional enforced from input :
     Exchange-correlation= PBE
                           (   1   4   3   4   0   0   0)
     Any further DFT definition will be discarded
     Please, verify this is what you really want


     G-vector sticks info
     --------------------
     sticks:   dense  smooth     PW     G-vecs:    dense   smooth      PW
     Sum        1789     859    253                50237    16625    2685

     Using Slab Decomposition

     Reading collected, re-writing distributed wavefunctions
     high-symmetry point:  0.5000 0.5000 0.5000   x coordinate   0.0000
     high-symmetry point:  0.0000 0.0000 0.0000   x coordinate   0.8660
     high-symmetry point:  1.0000 0.0000 0.0000   x coordinate   1.8660
     high-symmetry point:  1.0000 0.2500 0.2500   x coordinate   2.2196
     high-symmetry point:  0.0000 0.0000 0.0000   x coordinate   3.2802

     Plottable bands (eV) written to file si.bands.dat.gnu
     Bands written to file si.bands.dat

 **************************************************************************

                    xk=(   0.50000,   0.50000,   0.50000  )

     zone border point and non-symmorphic group 
     symmetry decomposition not available

 **************************************************************************

 **************************************************************************

                    xk=(   0.47500,   0.47500,   0.47500  )

     point group C_3v (3m)  
     there are  3 classes
     the character table:

       E     2C3   3s_v 
A_1    1.00  1.00  1.00
A_2    1.00  1.00 -1.00
E      2.00 -1.00  0.00

     the symmetry operations in each class and the name of the first element:

     E        1
                                                                 
     2C3      2    3
                                                                 
     3s_v     4    5    6
                                                                 

     Band symmetry, C_3v (3m)   point group:

     e(  1 -  1) =     -3.36782  eV     1   --> A_1  L_1       
     e(  2 -  2) =     -0.62430  eV     1   --> A_1  L_1       
     e(  3 -  4) =      5.16282  eV     2   --> E    L_3       
     e(  5 -  5) =      7.96987  eV     1   --> A_1  L_1       
     e(  6 -  7) =      9.71079  eV     2   --> E    L_3       
     e(  8 -  8) =     14.13648  eV     1   --> A_1  L_1       
     e(  9 - 10) =     16.72122  eV     2   --> E    L_3       
     e( 11 - 11) =     17.73752  eV     1   --> A_1  L_1       
     e( 12 - 13) =     18.07996  eV     2   --> E    L_3       
     e( 14 - 14) =     19.73081  eV     1   --> A_1  L_1       
     e( 15 - 15) =     25.38673  eV     1   --> A_1  L_1       
     e( 16 - 16) =     27.08112  eV     1   --> A_1  L_1       
     e( 17 - 18) =     27.60214  eV     2   --> E    L_3       
     e( 19 - 20) =     28.83615  eV     2   --> E    L_3       
     e( 21 - 21) =     32.04689  eV     1   --> A_1  L_1       
     e( 22 - 23) =     33.01923  eV     2   --> E    L_3       
     e( 24 - 25) =     34.09668  eV     2   --> E    L_3       
     e( 26 - 26) =     35.13050  eV     1   --> A_1  L_1       
     e( 27 - 27) =     37.82214  eV     1   --> A_2  L_2       
     e( 28 - 29) =     38.97562  eV     2   --> E    L_3       
     e( 30 - 30) =     39.54443  eV     1   -->   ?

 **************************************************************************

 **************************************************************************

                    xk=(   0.45000,   0.45000,   0.45000  )

     Band symmetry, C_3v (3m)   point group:

     e(  1 -  1) =     -3.46916  eV     1   --> A_1  L_1       
     e(  2 -  2) =     -0.47609  eV     1   --> A_1  L_1       
     e(  3 -  4) =      5.17638  eV     2   --> E    L_3       
     e(  5 -  5) =      7.98531  eV     1   --> A_1  L_1       
     e(  6 -  7) =      9.72676  eV     2   --> E    L_3       
     e(  8 -  8) =     14.16094  eV     1   --> A_1  L_1       
     e(  9 - 10) =     16.28801  eV     2   --> E    L_3       
     e( 11 - 11) =     17.42577  eV     1   --> A_1  L_1       
     e( 12 - 13) =     18.56898  eV     2   --> E    L_3       
     e( 14 - 14) =     20.01529  eV     1   --> A_1  L_1       
     e( 15 - 15) =     24.68448  eV     1   --> A_1  L_1       
     e( 16 - 17) =     26.95590  eV     2   --> E    L_3       
     e( 18 - 18) =     27.86550  eV     1   --> A_1  L_1       
     e( 19 - 20) =     29.35844  eV     2   --> E    L_3       
     e( 21 - 21) =     31.57225  eV     1   --> A_1  L_1       
     e( 22 - 23) =     33.10778  eV     2   --> E    L_3       
     e( 24 - 25) =     34.15619  eV     2   --> E    L_3       
     e( 26 - 26) =     35.49613  eV     1   --> A_1  L_1       
     e( 27 - 27) =     37.76728  eV     1   --> A_2  L_2       
     e( 28 - 29) =     38.98442  eV     2   --> E    L_3       
     e( 30 - 30) =     39.63821  eV     1   -->   ?

 **************************************************************************

 **************************************************************************

                    xk=(   0.42500,   0.42500,   0.42500  )

     Band symmetry, C_3v (3m)   point group:

     e(  1 -  1) =     -3.61729  eV     1   --> A_1  L_1       
     e(  2 -  2) =     -0.24994  eV     1   --> A_1  L_1       
     e(  3 -  4) =      5.19896  eV     2   --> E    L_3       
     e(  5 -  5) =      8.01097  eV     1   --> A_1  L_1       
     e(  6 -  7) =      9.75214  eV     2   --> E    L_3       
     e(  8 -  8) =     14.19943  eV     1   --> A_1  L_1       
     e(  9 - 10) =     15.83800  eV     2   --> E    L_3       
     e( 11 - 11) =     17.03474  eV     1   --> A_1  L_1       
     e( 12 - 13) =     19.11085  eV     2   --> E    L_3       
     e( 14 - 14) =     20.33770  eV     1   --> A_1  L_1       
     e( 15 - 15) =     24.02986  eV     1   --> A_1  L_1       
     e( 16 - 17) =     26.30515  eV     2   --> E    L_3       
     e( 18 - 18) =     28.67872  eV     1   --> A_1  L_1       
     e( 19 - 20) =     29.78965  eV     2   --> E    L_3       
     e( 21 - 21) =     30.96825  eV     1   --> A_1  L_1       
     e( 22 - 23) =     33.23302  eV     2   --> E    L_3       
     e( 24 - 25) =     34.29396  eV     2   --> E    L_3       
     e( 26 - 26) =     35.89432  eV     1   --> A_1  L_1       
     e( 27 - 27) =     37.68109  eV     1   --> A_2  L_2       
     e( 28 - 29) =     39.01142  eV     2   --> E    L_3       
     e( 30 - 30) =     39.77907  eV     1   -->   ?

 **************************************************************************

 **************************************************************************

                    xk=(   0.40000,   0.40000,   0.40000  )

     Band symmetry, C_3v (3m)   point group:

     e(  1 -  1) =     -3.79360  eV     1   --> A_1  L_1       
     e(  2 -  2) =      0.03531  eV     1   --> A_1  L_1       
     e(  3 -  4) =      5.23053  eV     2   --> E    L_3       
     e(  5 -  5) =      8.04674  eV     1   --> A_1  L_1       
     e(  6 -  7) =      9.78493  eV     2   --> E    L_3       
     e(  8 -  8) =     14.24741  eV     1   --> A_1  L_1       
     e(  9 - 10) =     15.40274  eV     2   --> E    L_3       
     e( 11 - 11) =     16.61803  eV     1   --> A_1  L_1       
     e( 12 - 13) =     19.67120  eV     2   --> E    L_3       
     e( 14 - 14) =     20.59176  eV     1   --> A_1  L_1       
     e( 15 - 15) =     23.49681  eV     1   --> A_1  L_1       
     e( 16 - 17) =     25.66542  eV     2   --> E    L_3       
     e( 18 - 18) =     29.48013  eV     1   --> A_1  L_1       
     e( 19 - 20) =     30.11090  eV     2   --> E    L_3       
     e( 21 - 21) =     30.33674  eV     1   --> A_1  L_1       
     e( 22 - 23) =     33.34832  eV     2   --> E    L_3       
     e( 24 - 25) =     34.56580  eV     2   --> E    L_3       
     e( 26 - 26) =     36.21614  eV     1   --> A_1  L_1       
     e( 27 - 27) =     37.57002  eV     1   --> A_2  L_2       
     e( 28 - 29) =     39.06418  eV     2   --> E    L_3       
     e( 30 - 30) =     39.95461  eV     1   -->   ?

 **************************************************************************

 **************************************************************************

                    xk=(   0.37500,   0.37500,   0.37500  )

     Band symmetry, C_3v (3m)   point group:

     e(  1 -  1) =     -3.98369  eV     1   --> A_1  L_1       
     e(  2 -  2) =      0.36500  eV     1   --> A_1  L_1       
     e(  3 -  4) =      5.27104  eV     2   --> E    L_3       
     e(  5 -  5) =      8.09241  eV     1   --> A_1  L_1       
     e(  6 -  7) =      9.82216  eV     2   --> E    L_3       
     e(  8 -  8) =     14.29531  eV     1   --> A_1  L_1       
     e(  9 - 10) =     14.99318  eV     2   --> E    L_3       
     e( 11 - 11) =     16.20512  eV     1   --> A_1  L_1       
     e( 12 - 13) =     20.23224  eV     2   --> E    L_3       
     e( 14 - 14) =     20.64935  eV     1   --> A_1  L_1       
     e( 15 - 15) =     23.19736  eV     1   --> A_1  L_1       
     e( 16 - 17) =     25.05297  eV     2   --> E    L_3       
     e( 18 - 18) =     29.55244  eV     1   --> A_1  L_1       
     e( 19 - 20) =     30.32417  eV     2   --> E    L_3       
     e( 21 - 21) =     30.42547  eV     1   --> A_1  L_1       
     e( 22 - 23) =     33.41518  eV     2   --> E    L_3       
     e( 24 - 25) =     35.00291  eV     2   --> E    L_3       
     e( 26 - 26) =     36.40922  eV     1   --> A_1  L_1       
     e( 27 - 27) =     37.44107  eV     1   --> A_2  L_2       
     e( 28 - 29) =     39.14609  eV     2   --> E    L_3       
     e( 30 - 30) =     40.15425  eV     1   -->   ?

 **************************************************************************

 **************************************************************************

                    xk=(   0.35000,   0.35000,   0.35000  )

     Band symmetry, C_3v (3m)   point group:

     e(  1 -  1) =     -4.17773  eV     1   --> A_1  L_1       
     e(  2 -  2) =      0.72889  eV     1   --> A_1  L_1       
     e(  3 -  4) =      5.32040  eV     2   --> E    L_3       
     e(  5 -  5) =      8.14772  eV     1   --> A_1  L_1       
     e(  6 -  7) =      9.85973  eV     2   --> E    L_3       
     e(  8 -  8) =     14.32177  eV     1   --> A_1  L_1       
     e(  9 - 10) =     14.61654  eV     2   --> E    L_3       
     e( 11 - 11) =     15.82532  eV     1   --> A_1  L_1       
     e( 12 - 12) =     20.42085  eV     1   --> A_1  L_1       
     e( 13 - 14) =     20.76915  eV     2   --> E    L_3       
     e( 15 - 15) =     23.21321  eV     1   --> A_1  L_1       
     e( 16 - 17) =     24.49365  eV     2   --> E    L_3       
     e( 18 - 18) =     28.90690  eV     1   --> A_1  L_1       
     e( 19 - 20) =     30.44839  eV     2   --> E    L_3       
     e( 21 - 21) =     31.23822  eV     1   --> A_1  L_1       
     e( 22 - 23) =     33.43414  eV     2   --> E    L_3       
     e( 24 - 25) =     35.58225  eV     2   --> E    L_3       
     e( 26 - 26) =     36.46773  eV     1   --> A_1  L_1       
     e( 27 - 27) =     37.30083  eV     1   --> A_2  L_2       
     e( 28 - 29) =     39.25773  eV     2   --> E    L_3       
     e( 30 - 30) =     40.36731  eV     1   -->   ?

 **************************************************************************

 **************************************************************************

                    xk=(   0.32500,   0.32500,   0.32500  )

     Band symmetry, C_3v (3m)   point group:

     e(  1 -  1) =     -4.36922  eV     1   --> A_1  L_1       
     e(  2 -  2) =      1.11999  eV     1   --> A_1  L_1       
     e(  3 -  4) =      5.37842  eV     2   --> E    L_3       
     e(  5 -  5) =      8.21226  eV     1   --> A_1  L_1       
     e(  6 -  7) =      9.89223  eV     2   --> E    L_3       
     e(  8 -  9) =     14.27964  eV     2   --> E    L_3       
     e( 10 - 10) =     14.28108  eV     1   --> A_1  L_1       
     e( 11 - 11) =     15.52687  eV     1   --> A_1  L_1       
     e( 12 - 12) =     19.97605  eV     1   --> A_1  L_1       
     e( 13 - 14) =     21.22811  eV     2   --> E    L_3       
     e( 15 - 15) =     23.46883  eV     1   --> A_1  L_1       
     e( 16 - 17) =     24.04253  eV     2   --> E    L_3       
     e( 18 - 18) =     28.25373  eV     1   --> A_1  L_1       
     e( 19 - 20) =     30.50777  eV     2   --> E    L_3       
     e( 21 - 21) =     32.07309  eV     1   --> A_1  L_1       
     e( 22 - 23) =     33.42100  eV     2   --> E    L_3       
     e( 24 - 25) =     36.26016  eV     2   --> E    L_3       
     e( 26 - 26) =     36.41665  eV     1   --> A_1  L_1       
     e( 27 - 27) =     37.15501  eV     1   --> A_2  L_2       
     e( 28 - 29) =     39.39809  eV     2   --> E    L_3       
     e( 30 - 30) =     40.58063  eV     1   -->   ?

 **************************************************************************

 **************************************************************************

                    xk=(   0.30000,   0.30000,   0.30000  )

     Band symmetry, C_3v (3m)   point group:

     e(  1 -  1) =     -4.55387  eV     1   --> A_1  L_1       
     e(  2 -  2) =      1.53335  eV     1   --> A_1  L_1       
     e(  3 -  4) =      5.44486  eV     2   --> E    L_3       
     e(  5 -  5) =      8.28547  eV     1   --> A_1  L_1       
     e(  6 -  7) =      9.91304  eV     2   --> E    L_3       
     e(  8 -  9) =     13.98978  eV     2   --> E    L_3       
     e( 10 - 10) =     14.11119  eV     1   --> A_1  L_1       
     e( 11 - 11) =     15.37103  eV     1   --> A_1  L_1       
     e( 12 - 12) =     19.43510  eV     1   --> A_1  L_1       
     e( 13 - 14) =     21.49096  eV     2   --> E    L_3       
     e( 15 - 16) =     23.81875  eV     2   --> E    L_3       
     e( 17 - 17) =     23.83598  eV     1   --> A_1  L_1       
     e( 18 - 18) =     27.63055  eV     1   --> A_1  L_1       
     e( 19 - 20) =     30.52341  eV     2   --> E    L_3       
     e( 21 - 21) =     32.89796  eV     1   --> A_1  L_1       
     e( 22 - 23) =     33.38798  eV     2   --> E    L_3       
     e( 24 - 24) =     36.29316  eV     1   --> A_1  L_1       
     e( 25 - 26) =     36.99721  eV     2   --> E    L_3       
     e( 27 - 27) =     37.00836  eV     1   --> A_2  L_2       
     e( 28 - 29) =     39.56581  eV     2   --> E    L_3       
     e( 30 - 30) =     40.77559  eV     1   -->   ?

 **************************************************************************

 **************************************************************************

                    xk=(   0.27500,   0.27500,   0.27500  )

     Band symmetry, C_3v (3m)   point group:

     e(  1 -  1) =     -4.72883  eV     1   --> A_1  L_1       
     e(  2 -  2) =      1.96524  eV     1   --> A_1  L_1       
     e(  3 -  4) =      5.51931  eV     2   --> E    L_3       
     e(  5 -  5) =      8.36657  eV     1   --> A_1  L_1       
     e(  6 -  7) =      9.91483  eV     2   --> E    L_3       
     e(  8 -  9) =     13.75454  eV     2   --> E    L_3       
     e( 10 - 10) =     13.80720  eV     1   --> A_1  L_1       
     e( 11 - 11) =     15.35890  eV     1   --> A_1  L_1       
     e( 12 - 12) =     18.87055  eV     1   --> A_1  L_1       
     e( 13 - 14) =     21.43041  eV     2   --> E    L_3       
     e( 15 - 16) =     23.95023  eV     2   --> E    L_3       
     e( 17 - 17) =     24.22283  eV     1   --> A_1  L_1       
     e( 18 - 18) =     27.06805  eV     1   --> A_1  L_1       
     e( 19 - 20) =     30.51104  eV     2   --> E    L_3       
     e( 21 - 22) =     33.34245  eV     2   --> E    L_3       
     e( 23 - 23) =     33.68584  eV     1   --> A_1  L_1       
     e( 24 - 24) =     36.14363  eV     1   --> A_1  L_1       
     e( 25 - 25) =     36.86465  eV     1   --> A_2  L_2       
     e( 26 - 27) =     37.75677  eV     2   --> E    L_3       
     e( 28 - 29) =     39.76034  eV     2   --> E    L_3       
     e( 30 - 30) =     40.92548  eV     1   -->   ?

 **************************************************************************

 **************************************************************************

                    xk=(   0.25000,   0.25000,   0.25000  )

     Band symmetry, C_3v (3m)   point group:

     e(  1 -  1) =     -4.89212  eV     1   --> A_1  L_1       
     e(  2 -  2) =      2.41256  eV     1   --> A_1  L_1       
     e(  3 -  4) =      5.60119  eV     2   --> E    L_3       
     e(  5 -  5) =      8.45447  eV     1   --> A_1  L_1       
     e(  6 -  7) =      9.89075  eV     2   --> E    L_3       
     e(  8 -  8) =     13.42356  eV     1   --> A_1  L_1       
     e(  9 - 10) =     13.58071  eV     2   --> E    L_3       
     e( 11 - 11) =     15.42807  eV     1   --> A_1  L_1       
     e( 12 - 12) =     18.32255  eV     1   --> A_1  L_1       
     e( 13 - 14) =     21.10986  eV     2   --> E    L_3       
     e( 15 - 16) =     24.37387  eV     2   --> E    L_3       
     e( 17 - 17) =     24.53469  eV     1   --> A_1  L_1       
     e( 18 - 18) =     26.63335  eV     1   --> A_1  L_1       
     e( 19 - 20) =     30.48179  eV     2   --> E    L_3       
     e( 21 - 22) =     33.28884  eV     2   --> E    L_3       
     e( 23 - 23) =     34.36186  eV     1   --> A_1  L_1       
     e( 24 - 24) =     36.05673  eV     1   --> A_1  L_1       
     e( 25 - 25) =     36.72688  eV     1   --> A_2  L_2       
     e( 26 - 27) =     38.48987  eV     2   --> E    L_3       
     e( 28 - 29) =     39.98177  eV     2   --> E    L_3       
     e( 30 - 30) =     41.00296  eV     1   -->   ?

 **************************************************************************

 **************************************************************************

                    xk=(   0.22500,   0.22500,   0.22500  )

     Band symmetry, C_3v (3m)   point group:

     e(  1 -  1) =     -5.04235  eV     1   --> A_1  L_1       
     e(  2 -  2) =      2.87244  eV     1   --> A_1  L_1       
     e(  3 -  4) =      5.68967  eV     2   --> E    L_3       
     e(  5 -  5) =      8.54767  eV     1   --> A_1  L_1       
     e(  6 -  7) =      9.83631  eV     2   --> E    L_3       
     e(  8 -  8) =     13.00207  eV     1   --> A_1  L_1       
     e(  9 - 10) =     13.47250  eV     2   --> E    L_3       
     e( 11 - 11) =     15.52124  eV     1   --> A_1  L_1       
     e( 12 - 12) =     17.82293  eV     1   --> A_1  L_1       
     e( 13 - 14) =     20.67503  eV     2   --> E    L_3       
     e( 15 - 15) =     24.61911  eV     1   --> A_1  L_1       
     e( 16 - 17) =     24.94385  eV     2   --> E    L_3       
     e( 18 - 18) =     26.46629  eV     1   --> A_1  L_1       
     e( 19 - 20) =     30.44361  eV     2   --> E    L_3       
     e( 21 - 22) =     33.22984  eV     2   --> E    L_3       
     e( 23 - 23) =     34.72302  eV     1   --> A_1  L_1       
     e( 24 - 24) =     36.24334  eV     1   --> A_1  L_1       
     e( 25 - 25) =     36.59739  eV     1   --> A_2  L_2       
     e( 26 - 27) =     39.10097  eV     2   --> E    L_3       
     e( 28 - 29) =     40.20646  eV     2   --> E    L_3       
     e( 30 - 30) =     41.04703  eV     1   -->   ?

 **************************************************************************

 **************************************************************************

                    xk=(   0.20000,   0.20000,   0.20000  )

     Band symmetry, C_3v (3m)   point group:

     e(  1 -  1) =     -5.17852  eV     1   --> A_1  L_1       
     e(  2 -  2) =      3.34188  eV     1   --> A_1  L_1       
     e(  3 -  4) =      5.78357  eV     2   --> E    L_3       
     e(  5 -  5) =      8.64409  eV     1   --> A_1  L_1       
     e(  6 -  7) =      9.75112  eV     2   --> E    L_3       
     e(  8 -  8) =     12.56255  eV     1   --> A_1  L_1       
     e(  9 - 10) =     13.42966  eV     2   --> E    L_3       
     e( 11 - 11) =     15.58823  eV     1   --> A_1  L_1       
     e( 12 - 12) =     17.41171  eV     1   --> A_1  L_1       
     e( 13 - 14) =     20.20543  eV     2   --> E    L_3       
     e( 15 - 15) =     24.39629  eV     1   --> A_1  L_1       
     e( 16 - 17) =     25.58011  eV     2   --> E    L_3       
     e( 18 - 18) =     26.64049  eV     1   --> A_1  L_1       
     e( 19 - 20) =     30.40237  eV     2   --> E    L_3       
     e( 21 - 22) =     33.16690  eV     2   --> E    L_3       
     e( 23 - 23) =     34.67623  eV     1   --> A_1  L_1       
     e( 24 - 24) =     36.47799  eV     1   --> A_2  L_2       
     e( 25 - 25) =     36.79976  eV     1   --> A_1  L_1       
     e( 26 - 27) =     39.40497  eV     2   --> E    L_3       
     e( 28 - 29) =     40.31752  eV     2   --> E    L_3       
     e( 30 - 30) =     41.31512  eV     1   -->   ?

 **************************************************************************

 **************************************************************************

                    xk=(   0.17500,   0.17500,   0.17500  )

     Band symmetry, C_3v (3m)   point group:

     e(  1 -  1) =     -5.29989  eV     1   --> A_1  L_1       
     e(  2 -  2) =      3.81734  eV     1   --> A_1  L_1       
     e(  3 -  4) =      5.88122  eV     2   --> E    L_3       
     e(  5 -  5) =      8.74086  eV     1   --> A_1  L_1       
     e(  6 -  7) =      9.63957  eV     2   --> E    L_3       
     e(  8 -  8) =     12.11504  eV     1   --> A_1  L_1       
     e(  9 - 10) =     13.44681  eV     2   --> E    L_3       
     e( 11 - 11) =     15.56956  eV     1   --> A_1  L_1       
     e( 12 - 12) =     17.14547  eV     1   --> A_1  L_1       
     e( 13 - 14) =     19.73570  eV     2   --> E    L_3       
     e( 15 - 15) =     24.00244  eV     1   --> A_1  L_1       
     e( 16 - 17) =     26.24668  eV     2   --> E    L_3       
     e( 18 - 18) =     27.01652  eV     1   --> A_1  L_1       
     e( 19 - 20) =     30.36281  eV     2   --> E    L_3       
     e( 21 - 22) =     33.10030  eV     2   --> E    L_3       
     e( 23 - 23) =     34.43269  eV     1   --> A_1  L_1       
     e( 24 - 24) =     36.37010  eV     1   --> A_2  L_2       
     e( 25 - 25) =     37.51448  eV     1   --> A_1  L_1       
     e( 26 - 27) =     39.22613  eV     2   --> E    L_3       
     e( 28 - 29) =     40.41262  eV     2   --> E    L_3       
     e( 30 - 30) =     41.90033  eV     1   -->   ?

 **************************************************************************

 **************************************************************************

                    xk=(   0.15000,   0.15000,   0.15000  )

     Band symmetry, C_3v (3m)   point group:

     e(  1 -  1) =     -5.40592  eV     1   --> A_1  L_1       
     e(  2 -  2) =      4.29426  eV     1   --> A_1  L_1       
     e(  3 -  4) =      5.98037  eV     2   --> E    L_3       
     e(  5 -  5) =      8.83390  eV     1   --> A_1  L_1       
     e(  6 -  7) =      9.50988  eV     2   --> E    L_3       
     e(  8 -  8) =     11.66695  eV     1   --> A_1  L_1       
     e(  9 - 10) =     13.51415  eV     2   --> E    L_3       
     e( 11 - 11) =     15.42636  eV     1   --> A_1  L_1       
     e( 12 - 12) =     17.06217  eV     1   --> A_1  L_1       
     e( 13 - 14) =     19.28370  eV     2   --> E    L_3       
     e( 15 - 15) =     23.56163  eV     1   --> A_1  L_1       
     e( 16 - 17) =     26.92307  eV     2   --> E    L_3       
     e( 18 - 18) =     27.46863  eV     1   --> A_1  L_1       
     e( 19 - 20) =     30.32936  eV     2   --> E    L_3       
     e( 21 - 22) =     33.02903  eV     2   --> E    L_3       
     e( 23 - 23) =     34.11647  eV     1   --> A_1  L_1       
     e( 24 - 24) =     36.27481  eV     1   --> A_2  L_2       
     e( 25 - 25) =     38.26019  eV     1   --> A_1  L_1       
     e( 26 - 27) =     38.72202  eV     2   --> E    L_3       
     e( 28 - 29) =     40.57847  eV     2   --> E    L_3       
     e( 30 - 30) =     42.59607  eV     1   -->   ?

 **************************************************************************

 **************************************************************************

                    xk=(   0.12500,   0.12500,   0.12500  )

     Band symmetry, C_3v (3m)   point group:

     e(  1 -  1) =     -5.49621  eV     1   --> A_1  L_1       
     e(  2 -  2) =      4.76615  eV     1   --> A_1  L_1       
     e(  3 -  4) =      6.07794  eV     2   --> E    L_3       
     e(  5 -  5) =      8.91737  eV     1   --> A_1  L_1       
     e(  6 -  7) =      9.37244  eV     2   --> E    L_3       
     e(  8 -  8) =     11.22719  eV     1   --> A_1  L_1       
     e(  9 - 10) =     13.61878  eV     2   --> E    L_3       
     e( 11 - 11) =     15.19537  eV     1   --> A_1  L_1       
     e( 12 - 12) =     17.12367  eV     1   --> A_1  L_1       
     e( 13 - 14) =     18.86190  eV     2   --> E    L_3       
     e( 15 - 15) =     23.12816  eV     1   --> A_1  L_1       
     e( 16 - 17) =     27.59150  eV     2   --> E    L_3       
     e( 18 - 18) =     27.94154  eV     1   --> A_1  L_1       
     e( 19 - 20) =     30.30726  eV     2   --> E    L_3       
     e( 21 - 22) =     32.95048  eV     2   --> E    L_3       
     e( 23 - 23) =     33.76955  eV     1   --> A_1  L_1       
     e( 24 - 24) =     36.19297  eV     1   --> A_2  L_2       
     e( 25 - 26) =     38.10610  eV     2   --> E    L_3       
     e( 27 - 27) =     38.98898  eV     1   --> A_1  L_1       
     e( 28 - 29) =     40.75052  eV     2   --> E    L_3       
     e( 30 - 30) =     43.27567  eV     1   -->   ?

 **************************************************************************

 **************************************************************************

                    xk=(   0.10000,   0.10000,   0.10000  )

     Band symmetry, C_3v (3m)   point group:

     e(  1 -  1) =     -5.57044  eV     1   --> A_1  L_1       
     e(  2 -  2) =      5.22304  eV     1   --> A_1  L_1       
     e(  3 -  4) =      6.16986  eV     2   --> E    L_3       
     e(  5 -  5) =      8.98269  eV     1   --> A_1  L_1       
     e(  6 -  7) =      9.23836  eV     2   --> E    L_3       
     e(  8 -  8) =     10.80980  eV     1   --> A_1  L_1       
     e(  9 - 10) =     13.74558  eV     2   --> E    L_3       
     e( 11 - 11) =     14.94476  eV     1   --> A_1  L_1       
     e( 12 - 12) =     17.25836  eV     1   --> A_1  L_1       
     e( 13 - 14) =     18.48207  eV     2   --> E    L_3       
     e( 15 - 15) =     22.72934  eV     1   --> A_1  L_1       
     e( 16 - 17) =     28.22913  eV     2   --> E    L_3       
     e( 18 - 18) =     28.40664  eV     1   --> A_1  L_1       
     e( 19 - 20) =     30.30462  eV     2   --> E    L_3       
     e( 21 - 22) =     32.86018  eV     2   --> E    L_3       
     e( 23 - 23) =     33.41321  eV     1   --> A_1  L_1       
     e( 24 - 24) =     36.12523  eV     1   --> A_2  L_2       
     e( 25 - 26) =     37.47837  eV     2   --> E    L_3       
     e( 27 - 27) =     39.67102  eV     1   --> A_1  L_1       
     e( 28 - 29) =     40.90466  eV     2   --> E    L_3       
     e( 30 - 30) =     43.87167  eV     1   -->   ?

 **************************************************************************

 **************************************************************************

                    xk=(   0.07500,   0.07500,   0.07500  )

     Band symmetry, C_3v (3m)   point group:

     e(  1 -  1) =     -5.62838  eV     1   --> A_1  L_1       
     e(  2 -  2) =      5.64852  eV     1   --> A_1  L_1       
     e(  3 -  4) =      6.25103  eV     2   --> E    L_3       
     e(  5 -  5) =      9.01765  eV     1   --> A_1  L_1       
     e(  6 -  7) =      9.11862  eV     2   --> E    L_3       
     e(  8 -  8) =     10.43841  eV     1   --> A_1  L_1       
     e(  9 - 10) =     13.87734  eV     2   --> E    L_3       
     e( 11 - 11) =     14.72041  eV     1   --> A_1  L_1       
     e( 12 - 12) =     17.41358  eV     1   --> A_1  L_1       
     e( 13 - 14) =     18.15770  eV     2   --> E    L_3       
     e( 15 - 15) =     22.38559  eV     1   --> A_1  L_1       
     e( 16 - 17) =     28.79872  eV     2   --> E    L_3       
     e( 18 - 18) =     28.83990  eV     1   --> A_1  L_1       
     e( 19 - 20) =     30.33633  eV     2   --> E    L_3       
     e( 21 - 22) =     32.75285  eV     2   --> E    L_3       
     e( 23 - 23) =     33.06751  eV     1   --> A_1  L_1       
     e( 24 - 24) =     36.07209  eV     1   --> A_2  L_2       
     e( 25 - 26) =     36.90036  eV     2   --> E    L_3       
     e( 27 - 27) =     40.27573  eV     1   --> A_1  L_1       
     e( 28 - 29) =     41.03194  eV     2   --> E    L_3       
     e( 30 - 30) =     44.34948  eV     1   -->   ?

 **************************************************************************

 **************************************************************************

                    xk=(   0.05000,   0.05000,   0.05000  )

     Band symmetry, C_3v (3m)   point group:

     e(  1 -  1) =     -5.66988  eV     1   --> A_1  L_1       
     e(  2 -  2) =      6.01448  eV     1   --> A_1  L_1       
     e(  3 -  4) =      6.31552  eV     2   --> E    L_3       
     e(  5 -  5) =      9.00987  eV     1   --> A_1  L_1       
     e(  6 -  7) =      9.02359  eV     2   --> E    L_3       
     e(  8 -  8) =     10.14851  eV     1   --> A_1  L_1       
     e(  9 - 10) =     13.99451  eV     2   --> E    L_3       
     e( 11 - 11) =     14.54705  eV     1   --> A_1  L_1       
     e( 12 - 12) =     17.55378  eV     1   --> A_1  L_1       
     e( 13 - 14) =     17.90519  eV     2   --> E    L_3       
     e( 15 - 15) =     22.11704  eV     1   --> A_1  L_1       
     e( 16 - 16) =     29.21046  eV     1   --> A_1  L_1       
     e( 17 - 18) =     29.23961  eV     2   --> E    L_3       
     e( 19 - 20) =     30.42480  eV     2   --> E    L_3       
     e( 21 - 22) =     32.62831  eV     2   --> E    L_3       
     e( 23 - 23) =     32.76093  eV     1   --> A_1  L_1       
     e( 24 - 24) =     36.03389  eV     1   --> A_2  L_2       
     e( 25 - 26) =     36.42720  eV     2   --> E    L_3       
     e( 27 - 27) =     40.76462  eV     1   --> A_1  L_1       
     e( 28 - 29) =     41.12686  eV     2   --> E    L_3       
     e( 30 - 30) =     44.69817  eV     1   -->   ?

 **************************************************************************

 **************************************************************************

                    xk=(   0.02500,   0.02500,   0.02500  )

     Band symmetry, C_3v (3m)   point group:

     e(  1 -  1) =     -5.69483  eV     1   --> A_1  L_1       
     e(  2 -  2) =      6.27493  eV     1   --> A_1  L_1       
     e(  3 -  4) =      6.35735  eV     2   --> E    L_3       
     e(  5 -  6) =      8.96229  eV     2   --> E    L_3       
     e(  7 -  7) =      8.96755  eV     1   --> A_1  L_1       
     e(  8 -  8) =      9.97343  eV     1   --> A_1  L_1       
     e(  9 - 10) =     14.07651  eV     2   --> E    L_3       
     e( 11 - 11) =     14.43825  eV     1   --> A_1  L_1       
     e( 12 - 12) =     17.65147  eV     1   --> A_1  L_1       
     e( 13 - 14) =     17.74287  eV     2   --> E    L_3       
     e( 15 - 15) =     21.94429  eV     1   --> A_1  L_1       
     e( 16 - 16) =     29.47241  eV     1   --> A_1  L_1       
     e( 17 - 18) =     29.49356  eV     2   --> E    L_3       
     e( 19 - 20) =     30.56044  eV     2   --> E    L_3       
     e( 21 - 22) =     32.50856  eV     2   --> E    L_3       
     e( 23 - 23) =     32.53792  eV     1   --> A_1  L_1       
     e( 24 - 24) =     36.01087  eV     1   --> A_2  L_2       
     e( 25 - 26) =     36.11348  eV     2   --> E    L_3       
     e( 27 - 27) =     41.08996  eV     1   --> A_1  L_1       
     e( 28 - 29) =     41.18547  eV     2   --> E    L_3       
     e( 30 - 30) =     44.91279  eV     1   -->   ?

 **************************************************************************

 **************************************************************************

                    xk=(   0.00000,   0.00000,   0.00000  )

     point group O_h (m-3m) 
     there are 10 classes
     the character table:

       E     8C3   3C2   6C4   6C2'  i     8S6   3s_h  6S4   6s_d 
A_1g   1.00  1.00  1.00  1.00  1.00  1.00  1.00  1.00  1.00  1.00
A_2g   1.00  1.00  1.00 -1.00 -1.00  1.00  1.00  1.00 -1.00 -1.00
E_g    2.00 -1.00  2.00  0.00  0.00  2.00 -1.00  2.00  0.00  0.00
T_1g   3.00  0.00 -1.00  1.00 -1.00  3.00  0.00 -1.00  1.00 -1.00
T_2g   3.00  0.00 -1.00 -1.00  1.00  3.00  0.00 -1.00 -1.00  1.00
A_1u   1.00  1.00  1.00  1.00  1.00 -1.00 -1.00 -1.00 -1.00 -1.00
A_2u   1.00  1.00  1.00 -1.00 -1.00 -1.00 -1.00 -1.00  1.00  1.00
E_u    2.00 -1.00  2.00  0.00  0.00 -2.00  1.00 -2.00  0.00  0.00
T_1u   3.00  0.00 -1.00  1.00 -1.00 -3.00  0.00  1.00 -1.00  1.00
T_2u   3.00  0.00 -1.00 -1.00  1.00 -3.00  0.00  1.00  1.00 -1.00

     the symmetry operations in each class and the name of the first element:

     E        1
                                                                 
     8C3     17   19   20   18   24   21   22   23
                                                                 
     3C2      2    4    3
                                                                 
     6C4      7    8   15   16   12   11
                                                                 
     6C2'     5    6   14   13   10    9
                                                                 
     i       25
                                                                 
     8S6     41   43   44   42   48   45   46   47
                                                                 
     3s_h    26   28   27
                                                                 
     6S4     31   32   39   40   36   35
                                                                 
     6s_d    29   30   38   37   34   33
                                                                 

     Band symmetry, O_h (m-3m)  point group:

     e(  1 -  1) =     -5.70315  eV     1   --> A_1g G_1   G_1+
     e(  2 -  4) =      6.37188  eV     3   --> T_2g G_25' G_5+
     e(  5 -  7) =      8.94107  eV     3   --> T_1u G_15  G_4-
     e(  8 -  8) =      9.91769  eV     1   --> A_2u G_2'  G_2-
     e(  9 - 10) =     14.10616  eV     2   --> E_u  G_12' G_3-
     e( 11 - 11) =     14.40121  eV     1   --> A_1g G_1   G_1+
     e( 12 - 14) =     17.68660  eV     3   --> T_2g G_25' G_5+
     e( 15 - 15) =     21.88442  eV     1   --> A_2u G_2'  G_2-
     e( 16 - 18) =     29.56947  eV     3   --> T_2g G_25' G_5+
     e( 19 - 20) =     30.63440  eV     2   --> E_g  G_12  G_3+
     e( 21 - 23) =     32.45392  eV     3   --> T_1u G_15  G_4-
     e( 24 - 26) =     36.00319  eV     3   --> T_2u G_25  G_5-
     e( 27 - 29) =     41.20529  eV     3   --> T_1u G_15  G_4-
     e( 30 - 30) =     44.98576  eV     1   -->   ?

 **************************************************************************

 **************************************************************************

                    xk=(   0.03333,   0.00000,   0.00000  )

     point group C_4v (4mm) 
     there are  5 classes
     the character table:

       E     2C4   C2    2s_v  2s_d 
A_1    1.00  1.00  1.00  1.00  1.00
A_2    1.00  1.00  1.00 -1.00 -1.00
B_1    1.00 -1.00  1.00  1.00 -1.00
B_2    1.00 -1.00  1.00 -1.00  1.00
E      2.00  0.00 -2.00  0.00  0.00

     the symmetry operations in each class and the name of the first element:

     E        1
                                                                 
     2C4      3    4
                                                                 
     C2       2
                                                                 
     2s_v     5    6
                                                                 
     2s_d     7    8
                                                                 

     Band symmetry, C_4v (4mm)  point group:

     e(  1 -  1) =     -5.69821  eV     1   --> A_1  G_1 D_1   
     e(  2 -  2) =      6.33926  eV     1   --> B_2  G_4 D_2'  
     e(  3 -  4) =      6.35023  eV     2   --> E    G_5 D_5   
     e(  5 -  5) =      8.92877  eV     1   --> A_1  G_1 D_1   
     e(  6 -  7) =      8.96879  eV     2   --> E    G_5 D_5   
     e(  8 -  8) =      9.94965  eV     1   --> B_2  G_4 D_2'  
     e(  9 -  9) =     14.06540  eV     1   --> B_2  G_4 D_2'  
     e( 10 - 10) =     14.11161  eV     1   --> A_2  G_2 D_1'  
     e( 11 - 11) =     14.42321  eV     1   --> A_1  G_1 D_1   
     e( 12 - 13) =     17.69513  eV     2   --> E    G_5 D_5   
     e( 14 - 14) =     17.71525  eV     1   --> B_2  G_4 D_2'  
     e( 15 - 15) =     21.92022  eV     1   --> B_2  G_4 D_2'  
     e( 16 - 17) =     29.49530  eV     2   --> E    G_5 D_5   
     e( 18 - 18) =     29.57566  eV     1   --> B_2  G_4 D_2'  
     e( 19 - 19) =     30.57329  eV     1   --> B_1  G_3 D_2   
     e( 20 - 20) =     30.59724  eV     1   --> A_1  G_1 D_1   
     e( 21 - 21) =     32.47655  eV     1   --> A_1  G_1 D_1   
     e( 22 - 23) =     32.50202  eV     2   --> E    G_5 D_5   
     e( 24 - 25) =     36.03964  eV     2   --> E    G_5 D_5   
     e( 26 - 26) =     36.06662  eV     1   --> B_1  G_3 D_2   
     e( 27 - 27) =     41.17384  eV     1   --> A_1  G_1 D_1   
     e( 28 - 29) =     41.17459  eV     2   --> E    G_5 D_5   
     e( 30 - 30) =     44.91088  eV     1   --> B_2  G_4 D_2'  

 **************************************************************************

 **************************************************************************

                    xk=(   0.06667,   0.00000,   0.00000  )

     Band symmetry, C_4v (4mm)  point group:

     e(  1 -  1) =     -5.68342  eV     1   --> A_1  G_1 D_1   
     e(  2 -  2) =      6.24495  eV     1   --> B_2  G_4 D_2'  
     e(  3 -  4) =      6.28802  eV     2   --> E    G_5 D_5   
     e(  5 -  5) =      8.89255  eV     1   --> A_1  G_1 D_1   
     e(  6 -  7) =      9.04920  eV     2   --> E    G_5 D_5   
     e(  8 -  8) =     10.04132  eV     1   --> B_2  G_4 D_2'  
     e(  9 -  9) =     13.94943  eV     1   --> B_2  G_4 D_2'  
     e( 10 - 10) =     14.12795  eV     1   --> A_2  G_2 D_1'  
     e( 11 - 11) =     14.48853  eV     1   --> A_1  G_1 D_1   
     e( 12 - 13) =     17.72070  eV     2   --> E    G_5 D_5   
     e( 14 - 14) =     17.79608  eV     1   --> B_2  G_4 D_2'  
     e( 15 - 15) =     22.02696  eV     1   --> B_2  G_4 D_2'  
     e( 16 - 17) =     29.28953  eV     2   --> E    G_5 D_5   
     e( 18 - 18) =     29.59431  eV     1   --> B_2  G_4 D_2'  
     e( 19 - 19) =     30.39829  eV     1   --> B_1  G_3 D_2   
     e( 20 - 20) =     30.49151  eV     1   --> A_1  G_1 D_1   
     e( 21 - 21) =     32.53871  eV     1   --> A_1  G_1 D_1   
     e( 22 - 23) =     32.62940  eV     2   --> E    G_5 D_5   
     e( 24 - 25) =     36.14914  eV     2   --> E    G_5 D_5   
     e( 26 - 26) =     36.24834  eV     1   --> B_1  G_3 D_2   
     e( 27 - 27) =     41.08114  eV     1   --> A_1  G_1 D_1   
     e( 28 - 29) =     41.08310  eV     2   --> E    G_5 D_5   
     e( 30 - 30) =     44.69442  eV     1   --> B_2  G_4 D_2'  

 **************************************************************************

 **************************************************************************

                    xk=(   0.10000,   0.00000,   0.00000  )

     Band symmetry, C_4v (4mm)  point group:

     e(  1 -  1) =     -5.65878  eV     1   --> A_1  G_1 D_1   
     e(  2 -  2) =      6.09795  eV     1   --> B_2  G_4 D_2'  
     e(  3 -  4) =      6.19220  eV     2   --> E    G_5 D_5   
     e(  5 -  5) =      8.83427  eV     1   --> A_1  G_1 D_1   
     e(  6 -  7) =      9.17532  eV     2   --> E    G_5 D_5   
     e(  8 -  8) =     10.18153  eV     1   --> B_2  G_4 D_2'  
     e(  9 -  9) =     13.77462  eV     1   --> B_2  G_4 D_2'  
     e( 10 - 10) =     14.15518  eV     1   --> A_2  G_2 D_1'  
     e( 11 - 11) =     14.59522  eV     1   --> A_1  G_1 D_1   
     e( 12 - 13) =     17.76329  eV     2   --> E    G_5 D_5   
     e( 14 - 14) =     17.91670  eV     1   --> B_2  G_4 D_2'  
     e( 15 - 15) =     22.20266  eV     1   --> B_2  G_4 D_2'  
     e( 16 - 17) =     28.98782  eV     2   --> E    G_5 D_5   
     e( 18 - 18) =     29.62560  eV     1   --> B_2  G_4 D_2'  
     e( 19 - 19) =     30.12983  eV     1   --> B_1  G_3 D_2   
     e( 20 - 20) =     30.33038  eV     1   --> A_1  G_1 D_1   
     e( 21 - 21) =     32.62729  eV     1   --> A_1  G_1 D_1   
     e( 22 - 23) =     32.80039  eV     2   --> E    G_5 D_5   
     e( 24 - 25) =     36.33142  eV     2   --> E    G_5 D_5   
     e( 26 - 26) =     36.52724  eV     1   --> B_1  G_3 D_2   
     e( 27 - 27) =     40.93138  eV     1   --> A_1  G_1 D_1   
     e( 28 - 29) =     40.93252  eV     2   --> E    G_5 D_5   
     e( 30 - 30) =     44.35703  eV     1   --> B_2  G_4 D_2'  

 **************************************************************************

 **************************************************************************

                    xk=(   0.13333,   0.00000,   0.00000  )

     Band symmetry, C_4v (4mm)  point group:

     e(  1 -  1) =     -5.62430  eV     1   --> A_1  G_1 D_1   
     e(  2 -  2) =      5.90926  eV     1   --> B_2  G_4 D_2'  
     e(  3 -  4) =      6.07121  eV     2   --> E    G_5 D_5   
     e(  5 -  5) =      8.75673  eV     1   --> A_1  G_1 D_1   
     e(  6 -  7) =      9.33862  eV     2   --> E    G_5 D_5   
     e(  8 -  8) =     10.35482  eV     1   --> B_2  G_4 D_2'  
     e(  9 -  9) =     13.56235  eV     1   --> B_2  G_4 D_2'  
     e( 10 - 10) =     14.19331  eV     1   --> A_2  G_2 D_1'  
     e( 11 - 11) =     14.74039  eV     1   --> A_1  G_1 D_1   
     e( 12 - 13) =     17.82284  eV     2   --> E    G_5 D_5   
     e( 14 - 14) =     18.06322  eV     1   --> B_2  G_4 D_2'  
     e( 15 - 15) =     22.44377  eV     1   --> B_2  G_4 D_2'  
     e( 16 - 17) =     28.62351  eV     2   --> E    G_5 D_5   
     e( 18 - 18) =     29.66989  eV     1   --> B_2  G_4 D_2'  
     e( 19 - 19) =     29.79151  eV     1   --> B_1  G_3 D_2   
     e( 20 - 20) =     30.12765  eV     1   --> A_1  G_1 D_1   
     e( 21 - 21) =     32.72859  eV     1   --> A_1  G_1 D_1   
     e( 22 - 23) =     32.98324  eV     2   --> E    G_5 D_5   
     e( 24 - 25) =     36.58449  eV     2   --> E    G_5 D_5   
     e( 26 - 26) =     36.87851  eV     1   --> B_1  G_3 D_2   
     e( 27 - 28) =     40.72556  eV     2   --> E    G_5 D_5   
     e( 29 - 29) =     40.72954  eV     1   --> A_1  G_1 D_1   
     e( 30 - 30) =     43.92382  eV     1   --> B_2  G_4 D_2'  

 **************************************************************************

 **************************************************************************

                    xk=(   0.16667,   0.00000,   0.00000  )

     Band symmetry, C_4v (4mm)  point group:

     e(  1 -  1) =     -5.58000  eV     1   --> A_1  G_1 D_1   
     e(  2 -  2) =      5.68918  eV     1   --> B_2  G_4 D_2'  
     e(  3 -  4) =      5.93293  eV     2   --> E    G_5 D_5   
     e(  5 -  5) =      8.66324  eV     1   --> A_1  G_1 D_1   
     e(  6 -  7) =      9.53114  eV     2   --> E    G_5 D_5   
     e(  8 -  8) =     10.54275  eV     1   --> B_2  G_4 D_2'  
     e(  9 -  9) =     13.33632  eV     1   --> B_2  G_4 D_2'  
     e( 10 - 10) =     14.24231  eV     1   --> A_2  G_2 D_1'  
     e( 11 - 11) =     14.92059  eV     1   --> A_1  G_1 D_1   
     e( 12 - 13) =     17.89925  eV     2   --> E    G_5 D_5   
     e( 14 - 14) =     18.22452  eV     1   --> B_2  G_4 D_2'  
     e( 15 - 15) =     22.74524  eV     1   --> B_2  G_4 D_2'  
     e( 16 - 17) =     28.22028  eV     2   --> E    G_5 D_5   
     e( 18 - 18) =     29.40401  eV     1   --> B_1  G_3 D_2   
     e( 19 - 19) =     29.72768  eV     1   --> B_2  G_4 D_2'  
     e( 20 - 20) =     29.89429  eV     1   --> A_1  G_1 D_1   
     e( 21 - 21) =     32.83171  eV     1   --> A_1  G_1 D_1   
     e( 22 - 23) =     33.15849  eV     2   --> E    G_5 D_5   
     e( 24 - 25) =     36.90345  eV     2   --> E    G_5 D_5   
     e( 26 - 26) =     37.27970  eV     1   --> B_1  G_3 D_2   
     e( 27 - 28) =     40.46578  eV     2   --> E    G_5 D_5   
     e( 29 - 29) =     40.47996  eV     1   --> A_1  G_1 D_1   
     e( 30 - 30) =     43.41817  eV     1   --> B_2  G_4 D_2'  

 **************************************************************************

 **************************************************************************

                    xk=(   0.20000,   0.00000,   0.00000  )

     Band symmetry, C_4v (4mm)  point group:

     e(  1 -  1) =     -5.52591  eV     1   --> A_1  G_1 D_1   
     e(  2 -  2) =      5.44604  eV     1   --> B_2  G_4 D_2'  
     e(  3 -  4) =      5.78374  eV     2   --> E    G_5 D_5   
     e(  5 -  5) =      8.55726  eV     1   --> A_1  G_1 D_1   
     e(  6 -  7) =      9.74637  eV     2   --> E    G_5 D_5   
     e(  8 -  8) =     10.72223  eV     1   --> B_2  G_4 D_2'  
     e(  9 -  9) =     13.12377  eV     1   --> B_2  G_4 D_2'  
     e( 10 - 10) =     14.30220  eV     1   --> A_2  G_2 D_1'  
     e( 11 - 11) =     15.13215  eV     1   --> A_1  G_1 D_1   
     e( 12 - 13) =     17.99236  eV     2   --> E    G_5 D_5   
     e( 14 - 14) =     18.39359  eV     1   --> B_2  G_4 D_2'  
     e( 15 - 15) =     23.10070  eV     1   --> B_2  G_4 D_2'  
     e( 16 - 17) =     27.79357  eV     2   --> E    G_5 D_5   
     e( 18 - 18) =     28.98315  eV     1   --> B_1  G_3 D_2   
     e( 19 - 19) =     29.63824  eV     1   --> A_1  G_1 D_1   
     e( 20 - 20) =     29.79971  eV     1   --> B_2  G_4 D_2'  
     e( 21 - 21) =     32.92873  eV     1   --> A_1  G_1 D_1   
     e( 22 - 23) =     33.31746  eV     2   --> E    G_5 D_5   
     e( 24 - 25) =     37.28036  eV     2   --> E    G_5 D_5   
     e( 26 - 26) =     37.71262  eV     1   --> B_1  G_3 D_2   
     e( 27 - 28) =     40.15762  eV     2   --> E    G_5 D_5   
     e( 29 - 29) =     40.18562  eV     1   --> A_1  G_1 D_1   
     e( 30 - 30) =     42.85913  eV     1   --> B_2  G_4 D_2'  

 **************************************************************************

 **************************************************************************

                    xk=(   0.23333,   0.00000,   0.00000  )

     Band symmetry, C_4v (4mm)  point group:

     e(  1 -  1) =     -5.46207  eV     1   --> A_1  G_1 D_1   
     e(  2 -  2) =      5.18611  eV     1   --> B_2  G_4 D_2'  
     e(  3 -  4) =      5.62850  eV     2   --> E    G_5 D_5   
     e(  5 -  5) =      8.44214  eV     1   --> A_1  G_1 D_1   
     e(  6 -  7) =      9.97935  eV     2   --> E    G_5 D_5   
     e(  8 -  8) =     10.86189  eV     1   --> B_2  G_4 D_2'  
     e(  9 -  9) =     12.95919  eV     1   --> B_2  G_4 D_2'  
     e( 10 - 10) =     14.37297  eV     1   --> A_2  G_2 D_1'  
     e( 11 - 11) =     15.37146  eV     1   --> A_1  G_1 D_1   
     e( 12 - 13) =     18.10195  eV     2   --> E    G_5 D_5   
     e( 14 - 14) =     18.56703  eV     1   --> B_2  G_4 D_2'  
     e( 15 - 15) =     23.50292  eV     1   --> B_2  G_4 D_2'  
     e( 16 - 17) =     27.35350  eV     2   --> E    G_5 D_5   
     e( 18 - 18) =     28.54037  eV     1   --> B_1  G_3 D_2   
     e( 19 - 19) =     29.36518  eV     1   --> A_1  G_1 D_1   
     e( 20 - 20) =     29.88697  eV     1   --> B_2  G_4 D_2'  
     e( 21 - 21) =     33.01387  eV     1   --> A_1  G_1 D_1   
     e( 22 - 23) =     33.45821  eV     2   --> E    G_5 D_5   
     e( 24 - 25) =     37.70472  eV     2   --> E    G_5 D_5   
     e( 26 - 26) =     38.16275  eV     1   --> B_1  G_3 D_2   
     e( 27 - 28) =     39.80694  eV     2   --> E    G_5 D_5   
     e( 29 - 29) =     39.84849  eV     1   --> A_1  G_1 D_1   
     e( 30 - 30) =     42.26127  eV     1   --> B_2  G_4 D_2'  

 **************************************************************************

 **************************************************************************

                    xk=(   0.26667,   0.00000,   0.00000  )

     Band symmetry, C_4v (4mm)  point group:

     e(  1 -  1) =     -5.38850  eV     1   --> A_1  G_1 D_1   
     e(  2 -  2) =      4.91396  eV     1   --> B_2  G_4 D_2'  
     e(  3 -  4) =      5.47076  eV     2   --> E    G_5 D_5   
     e(  5 -  5) =      8.32095  eV     1   --> A_1  G_1 D_1   
     e(  6 -  7) =     10.22635  eV     2   --> E    G_5 D_5   
     e(  8 -  8) =     10.92306  eV     1   --> B_2  G_4 D_2'  
     e(  9 -  9) =     12.88359  eV     1   --> B_2  G_4 D_2'  
     e( 10 - 10) =     14.45460  eV     1   --> A_2  G_2 D_1'  
     e( 11 - 11) =     15.63512  eV     1   --> A_1  G_1 D_1   
     e( 12 - 13) =     18.22766  eV     2   --> E    G_5 D_5   
     e( 14 - 14) =     18.74396  eV     1   --> B_2  G_4 D_2'  
     e( 15 - 15) =     23.94426  eV     1   --> B_2  G_4 D_2'  
     e( 16 - 17) =     26.90693  eV     2   --> E    G_5 D_5   
     e( 18 - 18) =     28.08376  eV     1   --> B_1  G_3 D_2   
     e( 19 - 19) =     29.07935  eV     1   --> A_1  G_1 D_1   
     e( 20 - 20) =     29.99080  eV     1   --> B_2  G_4 D_2'  
     e( 21 - 21) =     33.08262  eV     1   --> A_1  G_1 D_1   
     e( 22 - 23) =     33.58197  eV     2   --> E    G_5 D_5   
     e( 24 - 25) =     38.16156  eV     2   --> E    G_5 D_5   
     e( 26 - 26) =     38.61814  eV     1   --> B_1  G_3 D_2   
     e( 27 - 28) =     39.42438  eV     2   --> E    G_5 D_5   
     e( 29 - 29) =     39.47049  eV     1   --> A_1  G_1 D_1   
     e( 30 - 30) =     41.63550  eV     1   --> B_2  G_4 D_2'  

 **************************************************************************

 **************************************************************************

                    xk=(   0.30000,   0.00000,   0.00000  )

     Band symmetry, C_4v (4mm)  point group:

     e(  1 -  1) =     -5.30527  eV     1   --> A_1  G_1 D_1   
     e(  2 -  2) =      4.63286  eV     1   --> B_2  G_4 D_2'  
     e(  3 -  4) =      5.31314  eV     2   --> E    G_5 D_5   
     e(  5 -  5) =      8.19639  eV     1   --> A_1  G_1 D_1   
     e(  6 -  7) =     10.48462  eV     2   --> E    G_5 D_5   
     e(  8 -  8) =     10.87864  eV     1   --> B_2  G_4 D_2'  
     e(  9 -  9) =     12.92583  eV     1   --> B_2  G_4 D_2'  
     e( 10 - 10) =     14.54709  eV     1   --> A_2  G_2 D_1'  
     e( 11 - 11) =     15.91997  eV     1   --> A_1  G_1 D_1   
     e( 12 - 13) =     18.36897  eV     2   --> E    G_5 D_5   
     e( 14 - 14) =     18.92497  eV     1   --> B_2  G_4 D_2'  
     e( 15 - 15) =     24.41696  eV     1   --> B_2  G_4 D_2'  
     e( 16 - 17) =     26.45883  eV     2   --> E    G_5 D_5   
     e( 18 - 18) =     27.61905  eV     1   --> B_1  G_3 D_2   
     e( 19 - 19) =     28.78409  eV     1   --> A_1  G_1 D_1   
     e( 20 - 20) =     30.11300  eV     1   --> B_2  G_4 D_2'  
     e( 21 - 21) =     33.13113  eV     1   --> A_1  G_1 D_1   
     e( 22 - 23) =     33.69072  eV     2   --> E    G_5 D_5   
     e( 24 - 25) =     38.58780  eV     2   --> E    G_5 D_5   
     e( 26 - 26) =     39.05462  eV     1   --> A_1  G_1 D_1   
     e( 27 - 27) =     39.06841  eV     1   --> B_1  G_3 D_2   
     e( 28 - 29) =     39.07001  eV     2   --> E    G_5 D_5   
     e( 30 - 30) =     40.99001  eV     1   --> B_2  G_4 D_2'  

 **************************************************************************

 **************************************************************************

                    xk=(   0.33333,   0.00000,   0.00000  )

     Band symmetry, C_4v (4mm)  point group:

     e(  1 -  1) =     -5.21242  eV     1   --> A_1  G_1 D_1   
     e(  2 -  2) =      4.34518  eV     1   --> B_2  G_4 D_2'  
     e(  3 -  4) =      5.15759  eV     2   --> E    G_5 D_5   
     e(  5 -  5) =      8.07081  eV     1   --> A_1  G_1 D_1   
     e(  6 -  6) =     10.73677  eV     1   --> B_2  G_4 D_2'  
     e(  7 -  8) =     10.75206  eV     2   --> E    G_5 D_5   
     e(  9 -  9) =     13.07905  eV     1   --> B_2  G_4 D_2'  
     e( 10 - 10) =     14.65043  eV     1   --> A_2  G_2 D_1'  
     e( 11 - 11) =     16.22312  eV     1   --> A_1  G_1 D_1   
     e( 12 - 13) =     18.52511  eV     2   --> E    G_5 D_5   
     e( 14 - 14) =     19.11139  eV     1   --> B_2  G_4 D_2'  
     e( 15 - 15) =     24.91326  eV     1   --> B_2  G_4 D_2'  
     e( 16 - 17) =     26.01310  eV     2   --> E    G_5 D_5   
     e( 18 - 18) =     27.15037  eV     1   --> B_1  G_3 D_2   
     e( 19 - 19) =     28.48220  eV     1   --> A_1  G_1 D_1   
     e( 20 - 20) =     30.25595  eV     1   --> B_2  G_4 D_2'  
     e( 21 - 21) =     33.15577  eV     1   --> A_1  G_1 D_1   
     e( 22 - 23) =     33.78573  eV     2   --> E    G_5 D_5   
     e( 24 - 25) =     38.44911  eV     2   --> E    G_5 D_5   
     e( 26 - 26) =     38.60586  eV     1   --> A_1  G_1 D_1   
     e( 27 - 28) =     39.27702  eV     2   --> E    G_5 D_5   
     e( 29 - 29) =     39.50408  eV     1   --> B_1  G_3 D_2   
     e( 30 - 30) =     40.33097  eV     1   --> B_2  G_4 D_2'  

 **************************************************************************

 **************************************************************************

                    xk=(   0.36667,   0.00000,   0.00000  )

     Band symmetry, C_4v (4mm)  point group:

     e(  1 -  1) =     -5.11002  eV     1   --> A_1  G_1 D_1   
     e(  2 -  2) =      4.05261  eV     1   --> B_2  G_4 D_2'  
     e(  3 -  4) =      5.00553  eV     2   --> E    G_5 D_5   
     e(  5 -  5) =      7.94620  eV     1   --> A_1  G_1 D_1   
     e(  6 -  6) =     10.52950  eV     1   --> B_2  G_4 D_2'  
     e(  7 -  8) =     11.02709  eV     2   --> E    G_5 D_5   
     e(  9 -  9) =     13.31210  eV     1   --> B_2  G_4 D_2'  
     e( 10 - 10) =     14.76460  eV     1   --> A_2  G_2 D_1'  
     e( 11 - 11) =     16.54187  eV     1   --> A_1  G_1 D_1   
     e( 12 - 13) =     18.69496  eV     2   --> E    G_5 D_5   
     e( 14 - 14) =     19.30479  eV     1   --> B_2  G_4 D_2'  
     e( 15 - 15) =     25.42532  eV     1   --> B_2  G_4 D_2'  
     e( 16 - 17) =     25.57312  eV     2   --> E    G_5 D_5   
     e( 18 - 18) =     26.68074  eV     1   --> B_1  G_3 D_2   
     e( 19 - 19) =     28.17618  eV     1   --> A_1  G_1 D_1   
     e( 20 - 20) =     30.42279  eV     1   --> B_2  G_4 D_2'  
     e( 21 - 21) =     33.15277  eV     1   --> A_1  G_1 D_1   
     e( 22 - 23) =     33.86657  eV     2   --> E    G_5 D_5   
     e( 24 - 25) =     37.99950  eV     2   --> E    G_5 D_5   
     e( 26 - 26) =     38.13137  eV     1   --> A_1  G_1 D_1   
     e( 27 - 27) =     39.66318  eV     1   --> B_2  G_4 D_2'  
     e( 28 - 29) =     39.79242  eV     2   --> E    G_5 D_5   
     e( 30 - 30) =     39.91630  eV     1   --> B_1  G_3 D_2   

 **************************************************************************

 **************************************************************************

                    xk=(   0.40000,   0.00000,   0.00000  )

     Band symmetry, C_4v (4mm)  point group:

     e(  1 -  1) =     -4.99813  eV     1   --> A_1  G_1 D_1   
     e(  2 -  2) =      3.75644  eV     1   --> B_2  G_4 D_2'  
     e(  3 -  4) =      4.85808  eV     2   --> E    G_5 D_5   
     e(  5 -  5) =      7.82423  eV     1   --> A_1  G_1 D_1   
     e(  6 -  6) =     10.28665  eV     1   --> B_2  G_4 D_2'  
     e(  7 -  8) =     11.30848  eV     2   --> E    G_5 D_5   
     e(  9 -  9) =     13.59575  eV     1   --> B_2  G_4 D_2'  
     e( 10 - 10) =     14.88960  eV     1   --> A_2  G_2 D_1'  
     e( 11 - 11) =     16.87361  eV     1   --> A_1  G_1 D_1   
     e( 12 - 13) =     18.87681  eV     2   --> E    G_5 D_5   
     e( 14 - 14) =     19.50678  eV     1   --> B_2  G_4 D_2'  
     e( 15 - 16) =     25.14225  eV     2   --> E    G_5 D_5   
     e( 17 - 17) =     25.94502  eV     1   --> B_2  G_4 D_2'  
     e( 18 - 18) =     26.21238  eV     1   --> B_1  G_3 D_2   
     e( 19 - 19) =     27.86841  eV     1   --> A_1  G_1 D_1   
     e( 20 - 20) =     30.61755  eV     1   --> B_2  G_4 D_2'  
     e( 21 - 21) =     33.11801  eV     1   --> A_1  G_1 D_1   
     e( 22 - 23) =     33.93021  eV     2   --> E    G_5 D_5   
     e( 24 - 25) =     37.51810  eV     2   --> E    G_5 D_5   
     e( 26 - 26) =     37.64018  eV     1   --> A_1  G_1 D_1   
     e( 27 - 27) =     38.99046  eV     1   --> B_2  G_4 D_2'  
     e( 28 - 28) =     40.29707  eV     1   --> B_1  G_3 D_2   
     e( 29 - 30) =     40.34066  eV     2   --> E    G_5 D_5   

 **************************************************************************

 **************************************************************************

                    xk=(   0.43333,   0.00000,   0.00000  )

     Band symmetry, C_4v (4mm)  point group:

     e(  1 -  1) =     -4.87682  eV     1   --> A_1  G_1 D_1   
     e(  2 -  2) =      3.45763  eV     1   --> B_2  G_4 D_2'  
     e(  3 -  4) =      4.71606  eV     2   --> E    G_5 D_5   
     e(  5 -  5) =      7.70634  eV     1   --> A_1  G_1 D_1   
     e(  6 -  6) =     10.02771  eV     1   --> B_2  G_4 D_2'  
     e(  7 -  8) =     11.59525  eV     2   --> E    G_5 D_5   
     e(  9 -  9) =     13.91083  eV     1   --> B_2  G_4 D_2'  
     e( 10 - 10) =     15.02542  eV     1   --> A_2  G_2 D_1'  
     e( 11 - 11) =     17.21574  eV     1   --> A_1  G_1 D_1   
     e( 12 - 13) =     19.06816  eV     2   --> E    G_5 D_5   
     e( 14 - 14) =     19.71885  eV     1   --> B_2  G_4 D_2'  
     e( 15 - 16) =     24.72424  eV     2   --> E    G_5 D_5   
     e( 17 - 17) =     25.74701  eV     1   --> B_1  G_3 D_2   
     e( 18 - 18) =     26.46375  eV     1   --> B_2  G_4 D_2'  
     e( 19 - 19) =     27.56130  eV     1   --> A_1  G_1 D_1   
     e( 20 - 20) =     30.84525  eV     1   --> B_2  G_4 D_2'  
     e( 21 - 21) =     33.04676  eV     1   --> A_1  G_1 D_1   
     e( 22 - 23) =     33.96923  eV     2   --> E    G_5 D_5   
     e( 24 - 25) =     37.03470  eV     2   --> E    G_5 D_5   
     e( 26 - 26) =     37.14262  eV     1   --> A_1  G_1 D_1   
     e( 27 - 27) =     38.31600  eV     1   --> B_2  G_4 D_2'  
     e( 28 - 28) =     40.63971  eV     1   --> B_1  G_3 D_2   
     e( 29 - 30) =     40.89899  eV     2   --> E    G_5 D_5   

 **************************************************************************

 **************************************************************************

                    xk=(   0.46667,   0.00000,   0.00000  )

     Band symmetry, C_4v (4mm)  point group:

     e(  1 -  1) =     -4.74619  eV     1   --> A_1  G_1 D_1   
     e(  2 -  2) =      3.15692  eV     1   --> B_2  G_4 D_2'  
     e(  3 -  4) =      4.58015  eV     2   --> E    G_5 D_5   
     e(  5 -  5) =      7.59371  eV     1   --> A_1  G_1 D_1   
     e(  6 -  6) =      9.76425  eV     1   --> B_2  G_4 D_2'  
     e(  7 -  8) =     11.88666  eV     2   --> E    G_5 D_5   
     e(  9 -  9) =     14.24583  eV     1   --> B_2  G_4 D_2'  
     e( 10 - 10) =     15.17202  eV     1   --> A_2  G_2 D_1'  
     e( 11 - 11) =     17.56553  eV     1   --> A_1  G_1 D_1   
     e( 12 - 13) =     19.26514  eV     2   --> E    G_5 D_5   
     e( 14 - 14) =     19.94236  eV     1   --> B_2  G_4 D_2'  
     e( 15 - 16) =     24.32383  eV     2   --> E    G_5 D_5   
     e( 17 - 17) =     25.28594  eV     1   --> B_1  G_3 D_2   
     e( 18 - 18) =     26.97238  eV     1   --> B_2  G_4 D_2'  
     e( 19 - 19) =     27.25739  eV     1   --> A_1  G_1 D_1   
     e( 20 - 20) =     31.11176  eV     1   --> B_2  G_4 D_2'  
     e( 21 - 21) =     32.93357  eV     1   --> A_1  G_1 D_1   
     e( 22 - 23) =     33.96898  eV     2   --> E    G_5 D_5   
     e( 24 - 25) =     36.57200  eV     2   --> E    G_5 D_5   
     e( 26 - 26) =     36.64978  eV     1   --> A_1  G_1 D_1   
     e( 27 - 27) =     37.64262  eV     1   --> B_2  G_4 D_2'  
     e( 28 - 28) =     40.93955  eV     1   --> B_1  G_3 D_2   
     e( 29 - 30) =     41.45659  eV     2   --> E    G_5 D_5   

 **************************************************************************

 **************************************************************************

                    xk=(   0.50000,   0.00000,   0.00000  )

     Band symmetry, C_4v (4mm)  point group:

     e(  1 -  1) =     -4.60633  eV     1   --> A_1  G_1 D_1   
     e(  2 -  2) =      2.85496  eV     1   --> B_2  G_4 D_2'  
     e(  3 -  4) =      4.45086  eV     2   --> E    G_5 D_5   
     e(  5 -  5) =      7.48737  eV     1   --> A_1  G_1 D_1   
     e(  6 -  6) =      9.50321  eV     1   --> B_2  G_4 D_2'  
     e(  7 -  8) =     12.18211  eV     2   --> E    G_5 D_5   
     e(  9 -  9) =     14.59366  eV     1   --> B_2  G_4 D_2'  
     e( 10 - 10) =     15.32941  eV     1   --> A_2  G_2 D_1'  
     e( 11 - 11) =     17.91993  eV     1   --> A_1  G_1 D_1   
     e( 12 - 13) =     19.46180  eV     2   --> E    G_5 D_5   
     e( 14 - 14) =     20.17852  eV     1   --> B_2  G_4 D_2'  
     e( 15 - 16) =     23.94765  eV     2   --> E    G_5 D_5   
     e( 17 - 17) =     24.83020  eV     1   --> B_1  G_3 D_2   
     e( 18 - 18) =     26.95950  eV     1   --> A_1  G_1 D_1   
     e( 19 - 19) =     27.46160  eV     1   --> B_2  G_4 D_2'  
     e( 20 - 20) =     31.42315  eV     1   --> B_2  G_4 D_2'  
     e( 21 - 21) =     32.77247  eV     1   --> A_1  G_1 D_1   
     e( 22 - 23) =     33.90373  eV     2   --> E    G_5 D_5   
     e( 24 - 25) =     36.16107  eV     2   --> E    G_5 D_5   
     e( 26 - 26) =     36.17298  eV     1   --> A_1  G_1 D_1   
     e( 27 - 27) =     36.97313  eV     1   --> B_2  G_4 D_2'  
     e( 28 - 28) =     41.19459  eV     1   --> B_1  G_3 D_2   
     e( 29 - 29) =     41.89038  eV     1   --> A_1  G_1 D_1   
     e( 30 - 30) =     41.99884  eV     1   -->   ?

 **************************************************************************

 **************************************************************************

                    xk=(   0.53333,   0.00000,   0.00000  )

     Band symmetry, C_4v (4mm)  point group:

     e(  1 -  1) =     -4.45734  eV     1   --> A_1  G_1 D_1   
     e(  2 -  2) =      2.55228  eV     1   --> B_2  G_4 D_2'  
     e(  3 -  4) =      4.32863  eV     2   --> E    G_5 D_5   
     e(  5 -  5) =      7.38818  eV     1   --> A_1  G_1 D_1   
     e(  6 -  6) =      9.24891  eV     1   --> B_2  G_4 D_2'  
     e(  7 -  8) =     12.48112  eV     2   --> E    G_5 D_5   
     e(  9 -  9) =     14.94967  eV     1   --> B_2  G_4 D_2'  
     e( 10 - 10) =     15.49755  eV     1   --> A_2  G_2 D_1'  
     e( 11 - 11) =     18.27542  eV     1   --> A_1  G_1 D_1   
     e( 12 - 13) =     19.64883  eV     2   --> E    G_5 D_5   
     e( 14 - 14) =     20.42837  eV     1   --> B_2  G_4 D_2'  
     e( 15 - 16) =     23.60543  eV     2   --> E    G_5 D_5   
     e( 17 - 17) =     24.38062  eV     1   --> B_1  G_3 D_2   
     e( 18 - 18) =     26.67097  eV     1   --> A_1  G_1 D_1   
     e( 19 - 19) =     27.92286  eV     1   --> B_2  G_4 D_2'  
     e( 20 - 20) =     31.78422  eV     1   --> B_2  G_4 D_2'  
     e( 21 - 21) =     32.55774  eV     1   --> A_1  G_1 D_1   
     e( 22 - 23) =     33.73848  eV     2   --> E    G_5 D_5   
     e( 24 - 24) =     35.72291  eV     1   --> A_1  G_1 D_1   
     e( 25 - 26) =     35.84105  eV     2   --> E    G_5 D_5   
     e( 27 - 27) =     36.31088  eV     1   --> B_2  G_4 D_2'  
     e( 28 - 28) =     41.40561  eV     1   --> B_1  G_3 D_2   
     e( 29 - 29) =     41.80711  eV     1   --> A_1  G_1 D_1   
     e( 30 - 30) =     42.48980  eV     1   -->   ?

 **************************************************************************

 **************************************************************************

                    xk=(   0.56667,   0.00000,   0.00000  )

     Band symmetry, C_4v (4mm)  point group:

     e(  1 -  1) =     -4.29934  eV     1   --> A_1  G_1 D_1   
     e(  2 -  2) =      2.24938  eV     1   --> B_2  G_4 D_2'  
     e(  3 -  4) =      4.21378  eV     2   --> E    G_5 D_5   
     e(  5 -  5) =      7.29690  eV     1   --> A_1  G_1 D_1   
     e(  6 -  6) =      9.00411  eV     1   --> B_2  G_4 D_2'  
     e(  7 -  8) =     12.78333  eV     2   --> E    G_5 D_5   
     e(  9 -  9) =     15.31058  eV     1   --> B_2  G_4 D_2'  
     e( 10 - 10) =     15.67643  eV     1   --> A_2  G_2 D_1'  
     e( 11 - 11) =     18.62770  eV     1   --> A_1  G_1 D_1   
     e( 12 - 13) =     19.81192  eV     2   --> E    G_5 D_5   
     e( 14 - 14) =     20.69283  eV     1   --> B_2  G_4 D_2'  
     e( 15 - 16) =     23.31176  eV     2   --> E    G_5 D_5   
     e( 17 - 17) =     23.93785  eV     1   --> B_1  G_3 D_2   
     e( 18 - 18) =     26.39580  eV     1   --> A_1  G_1 D_1   
     e( 19 - 19) =     28.34970  eV     1   --> B_2  G_4 D_2'  
     e( 20 - 20) =     32.19573  eV     1   --> B_2  G_4 D_2'  
     e( 21 - 21) =     32.28546  eV     1   --> A_1  G_1 D_1   
     e( 22 - 23) =     33.44928  eV     2   --> E    G_5 D_5   
     e( 24 - 24) =     35.30805  eV     1   --> A_1  G_1 D_1   
     e( 25 - 26) =     35.63917  eV     2   --> E    G_5 D_5   
     e( 27 - 27) =     35.66118  eV     1   --> B_2  G_4 D_2'  
     e( 28 - 28) =     41.57587  eV     1   --> B_1  G_3 D_2   
     e( 29 - 29) =     41.75700  eV     1   --> A_1  G_1 D_1   
     e( 30 - 30) =     42.80963  eV     1   -->   ?

 **************************************************************************

 **************************************************************************

                    xk=(   0.60000,   0.00000,   0.00000  )

     Band symmetry, C_4v (4mm)  point group:

     e(  1 -  1) =     -4.13245  eV     1   --> A_1  G_1 D_1   
     e(  2 -  2) =      1.94672  eV     1   --> B_2  G_4 D_2'  
     e(  3 -  4) =      4.10662  eV     2   --> E    G_5 D_5   
     e(  5 -  5) =      7.21417  eV     1   --> A_1  G_1 D_1   
     e(  6 -  6) =      8.77067  eV     1   --> B_2  G_4 D_2'  
     e(  7 -  8) =     13.08847  eV     2   --> E    G_5 D_5   
     e(  9 -  9) =     15.67387  eV     1   --> B_2  G_4 D_2'  
     e( 10 - 10) =     15.86603  eV     1   --> A_2  G_2 D_1'  
     e( 11 - 11) =     18.97141  eV     1   --> A_1  G_1 D_1   
     e( 12 - 13) =     19.93046  eV     2   --> E    G_5 D_5   
     e( 14 - 14) =     20.97264  eV     1   --> B_2  G_4 D_2'  
     e( 15 - 16) =     23.08739  eV     2   --> E    G_5 D_5   
     e( 17 - 17) =     23.50245  eV     1   --> B_1  G_3 D_2   
     e( 18 - 18) =     26.13897  eV     1   --> A_1  G_1 D_1   
     e( 19 - 19) =     28.73903  eV     1   --> B_2  G_4 D_2'  
     e( 20 - 20) =     31.95560  eV     1   --> A_1  G_1 D_1   
     e( 21 - 21) =     32.64787  eV     1   --> B_2  G_4 D_2'  
     e( 22 - 23) =     33.04754  eV     2   --> E    G_5 D_5   
     e( 24 - 24) =     34.93279  eV     1   --> A_1  G_1 D_1   
     e( 25 - 25) =     35.03654  eV     1   --> B_2  G_4 D_2'  
     e( 26 - 27) =     35.54663  eV     2   --> E    G_5 D_5   
     e( 28 - 28) =     41.71030  eV     1   --> B_1  G_3 D_2   
     e( 29 - 29) =     41.73679  eV     1   --> A_1  G_1 D_1   
     e( 30 - 30) =     42.80040  eV     1   -->   ?

 **************************************************************************

 **************************************************************************

                    xk=(   0.63333,   0.00000,   0.00000  )

     Band symmetry, C_4v (4mm)  point group:

     e(  1 -  1) =     -3.95681  eV     1   --> A_1  G_1 D_1   
     e(  2 -  2) =      1.64477  eV     1   --> B_2  G_4 D_2'  
     e(  3 -  4) =      4.00737  eV     2   --> E    G_5 D_5   
     e(  5 -  5) =      7.14056  eV     1   --> A_1  G_1 D_1   
     e(  6 -  6) =      8.54981  eV     1   --> B_2  G_4 D_2'  
     e(  7 -  8) =     13.39631  eV     2   --> E    G_5 D_5   
     e(  9 -  9) =     16.03753  eV     1   --> B_2  G_4 D_2'  
     e( 10 - 10) =     16.06632  eV     1   --> A_2  G_2 D_1'  
     e( 11 - 11) =     19.29973  eV     1   --> A_1  G_1 D_1   
     e( 12 - 13) =     19.97971  eV     2   --> E    G_5 D_5   
     e( 14 - 14) =     21.26837  eV     1   --> B_2  G_4 D_2'  
     e( 15 - 16) =     22.95706  eV     2   --> E    G_5 D_5   
     e( 17 - 17) =     23.07486  eV     1   --> B_1  G_3 D_2   
     e( 18 - 18) =     25.90673  eV     1   --> A_1  G_1 D_1   
     e( 19 - 19) =     29.09143  eV     1   --> B_2  G_4 D_2'  
     e( 20 - 20) =     31.57317  eV     1   --> A_1  G_1 D_1   
     e( 21 - 22) =     32.56800  eV     2   --> E    G_5 D_5   
     e( 23 - 23) =     33.09054  eV     1   --> B_2  G_4 D_2'  
     e( 24 - 24) =     34.48614  eV     1   --> B_2  G_4 D_2'  
     e( 25 - 25) =     34.59630  eV     1   --> A_1  G_1 D_1   
     e( 26 - 27) =     35.53066  eV     2   --> E    G_5 D_5   
     e( 28 - 28) =     41.74304  eV     1   --> A_1  G_1 D_1   
     e( 29 - 29) =     41.81468  eV     1   --> B_1  G_3 D_2   
     e( 30 - 30) =     42.60964  eV     1   -->   ?

 **************************************************************************

 **************************************************************************

                    xk=(   0.66667,   0.00000,   0.00000  )

     Band symmetry, C_4v (4mm)  point group:

     e(  1 -  1) =     -3.77256  eV     1   --> A_1  G_1 D_1   
     e(  2 -  2) =      1.34398  eV     1   --> B_2  G_4 D_2'  
     e(  3 -  4) =      3.91623  eV     2   --> E    G_5 D_5   
     e(  5 -  5) =      7.07657  eV     1   --> A_1  G_1 D_1   
     e(  6 -  6) =      8.34237  eV     1   --> B_2  G_4 D_2'  
     e(  7 -  8) =     13.70668  eV     2   --> E    G_5 D_5   
     e(  9 -  9) =     16.27727  eV     1   --> A_2  G_2 D_1'  
     e( 10 - 10) =     16.39985  eV     1   --> B_2  G_4 D_2'  
     e( 11 - 11) =     19.60404  eV     1   --> A_1  G_1 D_1   
     e( 12 - 13) =     19.94019  eV     2   --> E    G_5 D_5   
     e( 14 - 14) =     21.58040  eV     1   --> B_2  G_4 D_2'  
     e( 15 - 15) =     22.65546  eV     1   --> B_1  G_3 D_2   
     e( 16 - 17) =     22.94017  eV     2   --> E    G_5 D_5   
     e( 18 - 18) =     25.70688  eV     1   --> A_1  G_1 D_1   
     e( 19 - 19) =     29.41022  eV     1   --> B_2  G_4 D_2'  
     e( 20 - 20) =     31.14761  eV     1   --> A_1  G_1 D_1   
     e( 21 - 22) =     32.04238  eV     2   --> E    G_5 D_5   
     e( 23 - 23) =     33.24626  eV     1   --> B_2  G_4 D_2'  
     e( 24 - 24) =     34.28373  eV     1   --> B_2  G_4 D_2'  
     e( 25 - 25) =     34.29339  eV     1   --> A_1  G_1 D_1   
     e( 26 - 27) =     35.56095  eV     2   --> E    G_5 D_5   
     e( 28 - 28) =     41.77191  eV     1   --> A_1  G_1 D_1   
     e( 29 - 29) =     41.89482  eV     1   --> B_1  G_3 D_2   
     e( 30 - 30) =     42.37758  eV     1   -->   ?

 **************************************************************************

 **************************************************************************

                    xk=(   0.70000,   0.00000,   0.00000  )

     Band symmetry, C_4v (4mm)  point group:

     e(  1 -  1) =     -3.57988  eV     1   --> A_1  G_1 D_1   
     e(  2 -  2) =      1.04481  eV     1   --> B_2  G_4 D_2'  
     e(  3 -  4) =      3.83336  eV     2   --> E    G_5 D_5   
     e(  5 -  5) =      7.02267  eV     1   --> A_1  G_1 D_1   
     e(  6 -  6) =      8.14886  eV     1   --> B_2  G_4 D_2'  
     e(  7 -  8) =     14.01943  eV     2   --> E    G_5 D_5   
     e(  9 -  9) =     16.49885  eV     1   --> A_2  G_2 D_1'  
     e( 10 - 10) =     16.75931  eV     1   --> B_2  G_4 D_2'  
     e( 11 - 12) =     19.80985  eV     2   --> E    G_5 D_5   
     e( 13 - 13) =     19.87381  eV     1   --> A_1  G_1 D_1   
     e( 14 - 14) =     21.90889  eV     1   --> B_2  G_4 D_2'  
     e( 15 - 15) =     22.24458  eV     1   --> B_1  G_3 D_2   
     e( 16 - 17) =     23.03859  eV     2   --> E    G_5 D_5   
     e( 18 - 18) =     25.54874  eV     1   --> A_1  G_1 D_1   
     e( 19 - 19) =     29.69971  eV     1   --> B_2  G_4 D_2'  
     e( 20 - 20) =     30.69063  eV     1   --> A_1  G_1 D_1   
     e( 21 - 22) =     31.49146  eV     2   --> E    G_5 D_5   
     e( 23 - 23) =     32.85282  eV     1   --> B_2  G_4 D_2'  
     e( 24 - 24) =     34.01672  eV     1   --> A_1  G_1 D_1   
     e( 25 - 25) =     34.68678  eV     1   --> B_2  G_4 D_2'  
     e( 26 - 27) =     35.61761  eV     2   --> E    G_5 D_5   
     e( 28 - 28) =     41.81894  eV     1   --> A_1  G_1 D_1   
     e( 29 - 29) =     41.95616  eV     1   --> B_1  G_3 D_2   
     e( 30 - 30) =     42.14345  eV     1   -->   ?

 **************************************************************************

 **************************************************************************

                    xk=(   0.73333,   0.00000,   0.00000  )

     Band symmetry, C_4v (4mm)  point group:

     e(  1 -  1) =     -3.37893  eV     1   --> A_1  G_1 D_1   
     e(  2 -  2) =      0.74771  eV     1   --> B_2  G_4 D_2'  
     e(  3 -  4) =      3.75889  eV     2   --> E    G_5 D_5   
     e(  5 -  5) =      6.97926  eV     1   --> A_1  G_1 D_1   
     e(  6 -  6) =      7.96963  eV     1   --> B_2  G_4 D_2'  
     e(  7 -  8) =     14.33439  eV     2   --> E    G_5 D_5   
     e(  9 -  9) =     16.73102  eV     1   --> A_2  G_2 D_1'  
     e( 10 - 10) =     17.11455  eV     1   --> B_2  G_4 D_2'  
     e( 11 - 12) =     19.60458  eV     2   --> E    G_5 D_5   
     e( 13 - 13) =     20.09697  eV     1   --> A_1  G_1 D_1   
     e( 14 - 14) =     21.84249  eV     1   --> B_1  G_3 D_2   
     e( 15 - 15) =     22.25370  eV     1   --> B_2  G_4 D_2'  
     e( 16 - 17) =     23.23619  eV     2   --> E    G_5 D_5   
     e( 18 - 18) =     25.44242  eV     1   --> A_1  G_1 D_1   
     e( 19 - 19) =     29.96283  eV     1   --> B_2  G_4 D_2'  
     e( 20 - 20) =     30.21436  eV     1   --> A_1  G_1 D_1   
     e( 21 - 22) =     30.92783  eV     2   --> E    G_5 D_5   
     e( 23 - 23) =     32.30301  eV     1   --> B_2  G_4 D_2'  
     e( 24 - 24) =     33.75904  eV     1   --> A_1  G_1 D_1   
     e( 25 - 25) =     35.29904  eV     1   --> B_2  G_4 D_2'  
     e( 26 - 27) =     35.68849  eV     2   --> E    G_5 D_5   
     e( 28 - 28) =     41.87859  eV     1   --> A_1  G_1 D_1   
     e( 29 - 30) =     41.91956  eV     2   --> E    G_5 D_5   

 **************************************************************************

 **************************************************************************

                    xk=(   0.76667,   0.00000,   0.00000  )

     Band symmetry, C_4v (4mm)  point group:

     e(  1 -  1) =     -3.16991  eV     1   --> A_1  G_1 D_1   
     e(  2 -  2) =      0.45314  eV     1   --> B_2  G_4 D_2'  
     e(  3 -  4) =      3.69295  eV     2   --> E    G_5 D_5   
     e(  5 -  5) =      6.94673  eV     1   --> A_1  G_1 D_1   
     e(  6 -  6) =      7.80484  eV     1   --> B_2  G_4 D_2'  
     e(  7 -  8) =     14.65133  eV     2   --> E    G_5 D_5   
     e(  9 -  9) =     16.97376  eV     1   --> A_2  G_2 D_1'  
     e( 10 - 10) =     17.46428  eV     1   --> B_2  G_4 D_2'  
     e( 11 - 12) =     19.34670  eV     2   --> E    G_5 D_5   
     e( 13 - 13) =     20.26146  eV     1   --> A_1  G_1 D_1   
     e( 14 - 14) =     21.44941  eV     1   --> B_1  G_3 D_2   
     e( 15 - 15) =     22.61433  eV     1   --> B_2  G_4 D_2'  
     e( 16 - 17) =     23.51040  eV     2   --> E    G_5 D_5   
     e( 18 - 18) =     25.39686  eV     1   --> A_1  G_1 D_1   
     e( 19 - 19) =     29.73064  eV     1   --> A_1  G_1 D_1   
     e( 20 - 20) =     30.19634  eV     1   --> B_2  G_4 D_2'  
     e( 21 - 22) =     30.35931  eV     2   --> E    G_5 D_5   
     e( 23 - 23) =     31.74366  eV     1   --> B_2  G_4 D_2'  
     e( 24 - 24) =     33.51433  eV     1   --> A_1  G_1 D_1   
     e( 25 - 26) =     35.76574  eV     2   --> E    G_5 D_5   
     e( 27 - 27) =     35.97627  eV     1   --> B_2  G_4 D_2'  
     e( 28 - 29) =     41.71152  eV     2   --> E    G_5 D_5   
     e( 30 - 30) =     41.94356  eV     1   --> A_1  G_1 D_1   

 **************************************************************************

 **************************************************************************

                    xk=(   0.80000,   0.00000,   0.00000  )

     Band symmetry, C_4v (4mm)  point group:

     e(  1 -  1) =     -2.95303  eV     1   --> A_1  G_1 D_1   
     e(  2 -  2) =      0.16156  eV     1   --> B_2  G_4 D_2'  
     e(  3 -  4) =      3.63563  eV     2   --> E    G_5 D_5   
     e(  5 -  5) =      6.92543  eV     1   --> A_1  G_1 D_1   
     e(  6 -  6) =      7.65454  eV     1   --> B_2  G_4 D_2'  
     e(  7 -  8) =     14.96984  eV     2   --> E    G_5 D_5   
     e(  9 -  9) =     17.22702  eV     1   --> A_2  G_2 D_1'  
     e( 10 - 10) =     17.80720  eV     1   --> B_2  G_4 D_2'  
     e( 11 - 12) =     19.05557  eV     2   --> E    G_5 D_5   
     e( 13 - 13) =     20.35772  eV     1   --> A_1  G_1 D_1   
     e( 14 - 14) =     21.06557  eV     1   --> B_1  G_3 D_2   
     e( 15 - 15) =     22.98983  eV     1   --> B_2  G_4 D_2'  
     e( 16 - 17) =     23.84164  eV     2   --> E    G_5 D_5   
     e( 18 - 18) =     25.41614  eV     1   --> A_1  G_1 D_1   
     e( 19 - 19) =     29.25174  eV     1   --> A_1  G_1 D_1   
     e( 20 - 21) =     29.79112  eV     2   --> E    G_5 D_5   
     e( 22 - 22) =     30.36702  eV     1   --> B_2  G_4 D_2'  
     e( 23 - 23) =     31.23878  eV     1   --> B_2  G_4 D_2'  
     e( 24 - 24) =     33.27821  eV     1   --> A_1  G_1 D_1   
     e( 25 - 26) =     35.84376  eV     2   --> E    G_5 D_5   
     e( 27 - 27) =     36.68682  eV     1   --> B_2  G_4 D_2'  
     e( 28 - 29) =     41.52292  eV     2   --> E    G_5 D_5   
     e( 30 - 30) =     42.00354  eV     1   --> A_1  G_1 D_1   

 **************************************************************************

 **************************************************************************

                    xk=(   0.83333,   0.00000,   0.00000  )

     Band symmetry, C_4v (4mm)  point group:

     e(  1 -  1) =     -2.72852  eV     1   --> A_1  G_1 D_1   
     e(  2 -  2) =     -0.12658  eV     1   --> B_2  G_4 D_2'  
     e(  3 -  4) =      3.58700  eV     2   --> E    G_5 D_5   
     e(  5 -  5) =      6.91570  eV     1   --> A_1  G_1 D_1   
     e(  6 -  6) =      7.51869  eV     1   --> B_2  G_4 D_2'  
     e(  7 -  8) =     15.28920  eV     2   --> E    G_5 D_5   
     e(  9 -  9) =     17.49076  eV     1   --> A_2  G_2 D_1'  
     e( 10 - 10) =     18.14199  eV     1   --> B_2  G_4 D_2'  
     e( 11 - 12) =     18.74527  eV     2   --> E    G_5 D_5   
     e( 13 - 13) =     20.38157  eV     1   --> A_1  G_1 D_1   
     e( 14 - 14) =     20.69112  eV     1   --> B_1  G_3 D_2   
     e( 15 - 15) =     23.37857  eV     1   --> B_2  G_4 D_2'  
     e( 16 - 17) =     24.21578  eV     2   --> E    G_5 D_5   
     e( 18 - 18) =     25.49448  eV     1   --> A_1  G_1 D_1   
     e( 19 - 19) =     28.79288  eV     1   --> A_1  G_1 D_1   
[...]
     e( 11 - 11) =     15.73260  eV     1   --> A'             
     e( 12 - 12) =     17.69932  eV     1   --> A'             
     e( 13 - 13) =     18.53535  eV     1   --> A''            
     e( 14 - 14) =     19.37674  eV     1   --> A'             
     e( 15 - 15) =     24.06052  eV     1   --> A'             
     e( 16 - 16) =     26.34272  eV     1   --> A''            
     e( 17 - 17) =     26.61682  eV     1   --> A'             
     e( 18 - 18) =     28.64501  eV     1   --> A''            
     e( 19 - 19) =     29.00454  eV     1   --> A'             
     e( 20 - 20) =     29.67793  eV     1   --> A'             
     e( 21 - 21) =     32.91206  eV     1   --> A'             
     e( 22 - 22) =     33.56445  eV     1   --> A''            
     e( 23 - 23) =     34.10900  eV     1   --> A'             
     e( 24 - 24) =     37.59402  eV     1   --> A''            
     e( 25 - 25) =     38.39810  eV     1   --> A'             
     e( 26 - 26) =     38.48898  eV     1   --> A'             
     e( 27 - 27) =     39.16366  eV     1   --> A''            
     e( 28 - 28) =     39.52375  eV     1   --> A''            
     e( 29 - 29) =     40.12641  eV     1   --> A'             
     e( 30 - 30) =     41.51570  eV     1   --> A'             

 **************************************************************************

 **************************************************************************

                    xk=(   0.23333,   0.05833,   0.05833  )

     Band symmetry, C_s (m)     point group:

     e(  1 -  1) =     -5.43237  eV     1   --> A'             
     e(  2 -  2) =      4.81761  eV     1   --> A'             
     e(  3 -  3) =      5.63403  eV     1   --> A''            
     e(  4 -  4) =      5.78689  eV     1   --> A'             
     e(  5 -  5) =      8.60520  eV     1   --> A'             
     e(  6 -  6) =      9.72042  eV     1   --> A'             
     e(  7 -  7) =      9.97203  eV     1   --> A''            
     e(  8 -  8) =     11.13902  eV     1   --> A'             
     e(  9 -  9) =     13.00725  eV     1   --> A'             
     e( 10 - 10) =     14.24602  eV     1   --> A''            
     e( 11 - 11) =     15.46149  eV     1   --> A'             
     e( 12 - 12) =     17.66049  eV     1   --> A'             
     e( 13 - 13) =     18.34750  eV     1   --> A''            
     e( 14 - 14) =     19.06992  eV     1   --> A'             
     e( 15 - 15) =     23.61130  eV     1   --> A'             
     e( 16 - 16) =     26.90838  eV     1   --> A''            
     e( 17 - 17) =     27.11581  eV     1   --> A'             
     e( 18 - 18) =     28.96688  eV     1   --> A''            
     e( 19 - 19) =     29.20172  eV     1   --> A'             
     e( 20 - 20) =     29.72205  eV     1   --> A'             
     e( 21 - 21) =     32.89714  eV     1   --> A'             
     e( 22 - 22) =     33.43800  eV     1   --> A''            
     e( 23 - 23) =     33.85886  eV     1   --> A'             
     e( 24 - 24) =     37.25455  eV     1   --> A''            
     e( 25 - 25) =     37.95973  eV     1   --> A'             
     e( 26 - 26) =     38.68788  eV     1   --> A''            
     e( 27 - 27) =     38.99457  eV     1   --> A'             
     e( 28 - 28) =     39.82614  eV     1   --> A''            
     e( 29 - 29) =     40.39004  eV     1   --> A'             
     e( 30 - 30) =     42.14682  eV     1   --> A'             

 **************************************************************************

 **************************************************************************

                    xk=(   0.20000,   0.05000,   0.05000  )

     Band symmetry, C_s (m)     point group:

     e(  1 -  1) =     -5.50399  eV     1   --> A'             
     e(  2 -  2) =      5.13213  eV     1   --> A'             
     e(  3 -  3) =      5.78580  eV     1   --> A''            
     e(  4 -  4) =      5.92793  eV     1   --> A'             
     e(  5 -  5) =      8.67759  eV     1   --> A'             
     e(  6 -  6) =      9.56752  eV     1   --> A'             
     e(  7 -  7) =      9.74701  eV     1   --> A''            
     e(  8 -  8) =     10.93616  eV     1   --> A'             
     e(  9 -  9) =     13.14444  eV     1   --> A'             
     e( 10 - 10) =     14.19895  eV     1   --> A''            
     e( 11 - 11) =     15.20746  eV     1   --> A'             
     e( 12 - 12) =     17.64263  eV     1   --> A'             
     e( 13 - 13) =     18.17948  eV     1   --> A''            
     e( 14 - 14) =     18.77603  eV     1   --> A'             
     e( 15 - 15) =     23.19478  eV     1   --> A'             
     e( 16 - 16) =     27.46215  eV     1   --> A''            
     e( 17 - 17) =     27.60829  eV     1   --> A'             
     e( 18 - 18) =     29.28434  eV     1   --> A''            
     e( 19 - 19) =     29.35817  eV     1   --> A'             
     e( 20 - 20) =     29.80969  eV     1   --> A'             
     e( 21 - 21) =     32.86316  eV     1   --> A'             
     e( 22 - 22) =     33.29791  eV     1   --> A''            
     e( 23 - 23) =     33.60136  eV     1   --> A'             
     e( 24 - 24) =     36.94318  eV     1   --> A''            
     e( 25 - 25) =     37.50511  eV     1   --> A'             
     e( 26 - 26) =     38.13968  eV     1   --> A''            
     e( 27 - 27) =     39.50234  eV     1   --> A'             
     e( 28 - 28) =     40.16361  eV     1   --> A''            
     e( 29 - 29) =     40.61122  eV     1   --> A'             
     e( 30 - 30) =     42.76323  eV     1   --> A'             

 **************************************************************************

 **************************************************************************

                    xk=(   0.16667,   0.04167,   0.04167  )

     Band symmetry, C_s (m)     point group:

     e(  1 -  1) =     -5.56472  eV     1   --> A'             
     e(  2 -  2) =      5.43575  eV     1   --> A'             
     e(  3 -  3) =      5.93280  eV     1   --> A''            
     e(  4 -  4) =      6.05406  eV     1   --> A'             
     e(  5 -  5) =      8.74702  eV     1   --> A'             
     e(  6 -  6) =      9.42134  eV     1   --> A'             
     e(  7 -  7) =      9.53544  eV     1   --> A''            
     e(  8 -  8) =     10.69225  eV     1   --> A'             
     e(  9 -  9) =     13.34339  eV     1   --> A'             
     e( 10 - 10) =     14.16452  eV     1   --> A''            
     e( 11 - 11) =     14.97804  eV     1   --> A'             
     e( 12 - 12) =     17.63999  eV     1   --> A'             
     e( 13 - 13) =     18.03337  eV     1   --> A''            
     e( 14 - 14) =     18.49876  eV     1   --> A'             
     e( 15 - 15) =     22.82098  eV     1   --> A'             
     e( 16 - 16) =     27.99331  eV     1   --> A''            
     e( 17 - 17) =     28.08475  eV     1   --> A'             
     e( 18 - 18) =     29.45672  eV     1   --> A'             
     e( 19 - 19) =     29.59351  eV     1   --> A''            
     e( 20 - 20) =     29.95222  eV     1   --> A'             
     e( 21 - 21) =     32.80856  eV     1   --> A'             
     e( 22 - 22) =     33.14349  eV     1   --> A''            
     e( 23 - 23) =     33.34382  eV     1   --> A'             
     e( 24 - 24) =     36.66740  eV     1   --> A''            
     e( 25 - 25) =     37.08523  eV     1   --> A'             
     e( 26 - 26) =     37.60185  eV     1   --> A''            
     e( 27 - 27) =     39.96709  eV     1   --> A'             
     e( 28 - 28) =     40.46636  eV     1   --> A''            
     e( 29 - 29) =     40.79465  eV     1   --> A'             
     e( 30 - 30) =     43.34571  eV     1   --> A'             

 **************************************************************************

 **************************************************************************

                    xk=(   0.13333,   0.03333,   0.03333  )

     Band symmetry, C_s (m)     point group:

     e(  1 -  1) =     -5.61449  eV     1   --> A'             
     e(  2 -  2) =      5.72074  eV     1   --> A'             
     e(  3 -  3) =      6.07005  eV     1   --> A''            
     e(  4 -  4) =      6.16281  eV     1   --> A'             
     e(  5 -  5) =      8.81046  eV     1   --> A'             
     e(  6 -  6) =      9.28334  eV     1   --> A'             
     e(  7 -  7) =      9.34363  eV     1   --> A''            
     e(  8 -  8) =     10.44738  eV     1   --> A'             
     e(  9 -  9) =     13.56267  eV     1   --> A'             
     e( 10 - 10) =     14.14021  eV     1   --> A''            
     e( 11 - 11) =     14.77981  eV     1   --> A'             
     e( 12 - 12) =     17.64741  eV     1   --> A'             
     e( 13 - 13) =     17.91098  eV     1   --> A''            
     e( 14 - 14) =     18.24408  eV     1   --> A'             
     e( 15 - 15) =     22.49897  eV     1   --> A'             
     e( 16 - 16) =     28.48667  eV     1   --> A''            
     e( 17 - 17) =     28.53300  eV     1   --> A'             
     e( 18 - 18) =     29.51035  eV     1   --> A'             
     e( 19 - 19) =     29.88892  eV     1   --> A''            
     e( 20 - 20) =     30.12988  eV     1   --> A'             
     e( 21 - 21) =     32.73367  eV     1   --> A'             
     e( 22 - 22) =     32.97603  eV     1   --> A''            
     e( 23 - 23) =     33.09314  eV     1   --> A'             
     e( 24 - 24) =     36.43373  eV     1   --> A''            
     e( 25 - 25) =     36.71620  eV     1   --> A'             
     e( 26 - 26) =     37.09999  eV     1   --> A''            
     e( 27 - 27) =     40.37737  eV     1   --> A'             
     e( 28 - 28) =     40.72414  eV     1   --> A''            
     e( 29 - 29) =     40.94306  eV     1   --> A'             
     e( 30 - 30) =     43.87467  eV     1   --> A'             

 **************************************************************************

 **************************************************************************

                    xk=(   0.10000,   0.02500,   0.02500  )

     Band symmetry, C_s (m)     point group:

     e(  1 -  1) =     -5.65325  eV     1   --> A'             
     e(  2 -  2) =      5.97551  eV     1   --> A'             
     e(  3 -  3) =      6.19093  eV     1   --> A''            
     e(  4 -  4) =      6.25150  eV     1   --> A'             
     e(  5 -  5) =      8.86457  eV     1   --> A'             
     e(  6 -  6) =      9.15626  eV     1   --> A'             
     e(  7 -  7) =      9.17926  eV     1   --> A''            
     e(  8 -  8) =     10.22978  eV     1   --> A'             
     e(  9 -  9) =     13.77241  eV     1   --> A'             
     e( 10 - 10) =     14.12383  eV     1   --> A''            
     e( 11 - 11) =     14.61854  eV     1   --> A'             
     e( 12 - 12) =     17.66002  eV     1   --> A'             
     e( 13 - 13) =     17.81393  eV     1   --> A''            
     e( 14 - 14) =     18.02131  eV     1   --> A'             
     e( 15 - 15) =     22.23728  eV     1   --> A'             
     e( 16 - 16) =     28.92060  eV     1   --> A''            
     e( 17 - 17) =     28.93543  eV     1   --> A'             
     e( 18 - 18) =     29.54019  eV     1   --> A'             
     e( 19 - 19) =     30.16218  eV     1   --> A''            
     e( 20 - 20) =     30.31241  eV     1   --> A'             
     e( 21 - 21) =     32.64372  eV     1   --> A'             
     e( 22 - 22) =     32.80141  eV     1   --> A''            
     e( 23 - 23) =     32.85837  eV     1   --> A'             
     e( 24 - 24) =     36.24745  eV     1   --> A''            
     e( 25 - 25) =     36.41287  eV     1   --> A'             
     e( 26 - 26) =     36.65961  eV     1   --> A''            
     e( 27 - 27) =     40.72072  eV     1   --> A'             
     e( 28 - 28) =     40.93094  eV     1   --> A''            
     e( 29 - 29) =     41.05788  eV     1   --> A'             
     e( 30 - 30) =     44.32816  eV     1   --> A'             

 **************************************************************************

 **************************************************************************

                    xk=(   0.06667,   0.01667,   0.01667  )

     Band symmetry, C_s (m)     point group:

     e(  1 -  1) =     -5.68096  eV     1   --> A'             
     e(  2 -  2) =      6.18329  eV     1   --> A'             
     e(  3 -  3) =      6.28721  eV     1   --> A''            
     e(  4 -  4) =      6.31741  eV     1   --> A'             
     e(  5 -  5) =      8.90606  eV     1   --> A'             
     e(  6 -  6) =      9.04708  eV     1   --> A'             
     e(  7 -  7) =      9.05136  eV     1   --> A''            
     e(  8 -  8) =     10.06046  eV     1   --> A'             
     e(  9 -  9) =     13.94742  eV     1   --> A'             
     e( 10 - 10) =     14.11353  eV     1   --> A''            
     e( 11 - 11) =     14.49926  eV     1   --> A'             
     e( 12 - 12) =     17.67321  eV     1   --> A'             
     e( 13 - 13) =     17.74356  eV     1   --> A''            
     e( 14 - 14) =     17.84372  eV     1   --> A'             
     e( 15 - 15) =     22.04368  eV     1   --> A'             
     e( 16 - 16) =     29.26602  eV     1   --> A'             
     e( 17 - 17) =     29.26622  eV     1   --> A''            
     e( 18 - 18) =     29.55740  eV     1   --> A'             
     e( 19 - 19) =     30.39844  eV     1   --> A''            
     e( 20 - 20) =     30.47470  eV     1   --> A'             
     e( 21 - 21) =     32.55219  eV     1   --> A'             
     e( 22 - 22) =     32.63447  eV     1   --> A''            
     e( 23 - 23) =     32.65475  eV     1   --> A'             
     e( 24 - 24) =     36.11231  eV     1   --> A''            
     e( 25 - 25) =     36.18777  eV     1   --> A'             
     e( 26 - 26) =     36.31001  eV     1   --> A''            
     e( 27 - 27) =     40.98277  eV     1   --> A'             
     e( 28 - 28) =     41.08214  eV     1   --> A''            
     e( 29 - 29) =     41.13977  eV     1   --> A'             
     e( 30 - 30) =     44.68115  eV     1   --> A'             

 **************************************************************************

 **************************************************************************

                    xk=(   0.03333,   0.00833,   0.00833  )

     Band symmetry, C_s (m)     point group:

     e(  1 -  1) =     -5.69760  eV     1   --> A'             
     e(  2 -  2) =      6.32242  eV     1   --> A'             
     e(  3 -  3) =      6.34998  eV     1   --> A''            
     e(  4 -  4) =      6.35811  eV     1   --> A'             
     e(  5 -  5) =      8.93217  eV     1   --> A'             
     e(  6 -  6) =      8.96940  eV     1   --> A''            
     e(  7 -  7) =      8.96965  eV     1   --> A'             
     e(  8 -  8) =      9.95391  eV     1   --> A'             
     e(  9 -  9) =     14.06469  eV     1   --> A'             
     e( 10 - 10) =     14.10793  eV     1   --> A''            
     e( 11 - 11) =     14.42595  eV     1   --> A'             
     e( 12 - 12) =     17.68300  eV     1   --> A'             
     e( 13 - 13) =     17.70089  eV     1   --> A''            
     e( 14 - 14) =     17.72737  eV     1   --> A'             
     e( 15 - 15) =     21.92462  eV     1   --> A'             
     e( 16 - 16) =     29.48947  eV     1   --> A'             
     e( 17 - 17) =     29.49119  eV     1   --> A''            
     e( 18 - 18) =     29.56657  eV     1   --> A'             
     e( 19 - 19) =     30.56957  eV     1   --> A''            
     e( 20 - 20) =     30.59110  eV     1   --> A'             
     e( 21 - 21) =     32.48113  eV     1   --> A'             
     e( 22 - 22) =     32.50480  eV     1   --> A''            
     e( 23 - 23) =     32.50858  eV     1   --> A'             
     e( 24 - 24) =     36.03054  eV     1   --> A''            
     e( 25 - 25) =     36.04967  eV     1   --> A'             
     e( 26 - 26) =     36.08251  eV     1   --> A''            
     e( 27 - 27) =     41.14843  eV     1   --> A'             
     e( 28 - 28) =     41.17432  eV     1   --> A''            
     e( 29 - 29) =     41.18890  eV     1   --> A'             
     e( 30 - 30) =     44.90748  eV     1   --> A'             

 **************************************************************************

 **************************************************************************

                    xk=(   0.00000,   0.00000,   0.00000  )

     point group O_h (m-3m) 
     there are 10 classes
     the character table:

       E     8C3   3C2   6C4   6C2'  i     8S6   3s_h  6S4   6s_d 
A_1g   1.00  1.00  1.00  1.00  1.00  1.00  1.00  1.00  1.00  1.00
A_2g   1.00  1.00  1.00 -1.00 -1.00  1.00  1.00  1.00 -1.00 -1.00
E_g    2.00 -1.00  2.00  0.00  0.00  2.00 -1.00  2.00  0.00  0.00
T_1g   3.00  0.00 -1.00  1.00 -1.00  3.00  0.00 -1.00  1.00 -1.00
T_2g   3.00  0.00 -1.00 -1.00  1.00  3.00  0.00 -1.00 -1.00  1.00
A_1u   1.00  1.00  1.00  1.00  1.00 -1.00 -1.00 -1.00 -1.00 -1.00
A_2u   1.00  1.00  1.00 -1.00 -1.00 -1.00 -1.00 -1.00  1.00  1.00
E_u    2.00 -1.00  2.00  0.00  0.00 -2.00  1.00 -2.00  0.00  0.00
T_1u   3.00  0.00 -1.00  1.00 -1.00 -3.00  0.00  1.00 -1.00  1.00
T_2u   3.00  0.00 -1.00 -1.00  1.00 -3.00  0.00  1.00  1.00 -1.00

     the symmetry operations in each class and the name of the first element:

     E        1
                                                                 
     8C3     17   19   20   18   24   21   22   23
                                                                 
     3C2      2    4    3
                                                                 
     6C4      7    8   15   16   12   11
                                                                 
     6C2'     5    6   14   13   10    9
                                                                 
     i       25
                                                                 
     8S6     41   43   44   42   48   45   46   47
                                                                 
     3s_h    26   28   27
                                                                 
     6S4     31   32   39   40   36   35
                                                                 
     6s_d    29   30   38   37   34   33
                                                                 

     Band symmetry, O_h (m-3m)  point group:

     e(  1 -  1) =     -5.70315  eV     1   --> A_1g G_1   G_1+
     e(  2 -  4) =      6.37188  eV     3   --> T_2g G_25' G_5+
     e(  5 -  7) =      8.94107  eV     3   --> T_1u G_15  G_4-
     e(  8 -  8) =      9.91769  eV     1   --> A_2u G_2'  G_2-
     e(  9 - 10) =     14.10616  eV     2   --> E_u  G_12' G_3-
     e( 11 - 11) =     14.40121  eV     1   --> A_1g G_1   G_1+
     e( 12 - 14) =     17.68660  eV     3   --> T_2g G_25' G_5+
     e( 15 - 15) =     21.88442  eV     1   --> A_2u G_2'  G_2-
     e( 16 - 18) =     29.56947  eV     3   --> T_2g G_25' G_5+
     e( 19 - 20) =     30.63440  eV     2   --> E_g  G_12  G_3+
     e( 21 - 23) =     32.45392  eV     3   --> T_1u G_15  G_4-
     e( 24 - 26) =     36.00319  eV     3   --> T_2u G_25  G_5-
     e( 27 - 29) =     41.20529  eV     3   --> T_1u G_15  G_4-
     e( 30 - 30) =     44.98576  eV     1   -->   ?

 **************************************************************************

     BANDS        :   1m28.35s CPU   1m41.87s WALL


   This run was terminated on:  23:49:31  31May2023            

=------------------------------------------------------------------------------=
   JOB DONE.
=------------------------------------------------------------------------------=
