
     Program PWSCF v.7.2 starts on 14May2023 at 13: 4:26 

     This program is part of the open-source Quantum ESPRESSO suite
     for quantum simulation of materials; please cite
         "P. Giannozzi et al., J. Phys.:Condens. Matter 21 395502 (2009);
         "P. Giannozzi et al., J. Phys.:Condens. Matter 29 465901 (2017);
         "P. Giannozzi et al., J. Chem. Phys. 152 154105 (2020);
          URL http://www.quantum-espresso.org", 
     in publications or presentations arising from this work. More details at
     http://www.quantum-espresso.org/quote

     Parallel version (MPI), running on     1 processors

     MPI processes distributed on     1 nodes
     102 MiB available memory on the printing compute node when the environment starts

     Reading input from 1_c.scf.in

     Current dimensions of program PWSCF are:
     Max number of different atomic species (ntypx) = 10
     Max number of k-points (npk) =  40000
     Max angular momentum in pseudopotentials (lmaxx) =  4
     file C.pbe-n-kjpaw_psl.1.0.0.UPF: wavefunction(s)  2S 2P renormalized

     Subspace diagonalization in iterative solution of the eigenvalue problem:
     a serial algorithm will be used


     G-vector sticks info
     --------------------
     sticks:   dense  smooth     PW     G-vecs:    dense   smooth      PW
     Sum        5129    5129   1829                35379    35379    7491

     Using Slab Decomposition



     bravais-lattice index     =            6
     lattice parameter (alat)  =      18.8973  a.u.
     unit-cell volume          =     866.9585 (a.u.)^3
     number of atoms/cell      =            1
     number of atomic types    =            1
     number of electrons       =         4.00
     number of Kohn-Sham states=            6
     kinetic-energy cutoff     =      45.0000  Ry
     charge density cutoff     =     180.0000  Ry
     scf convergence threshold =      1.0E-06
     mixing beta               =       0.7000
     number of iterations used =            8  plain     mixing
     Exchange-correlation= SLA  PW   PBX  PBC
                           (   1   4   3   4   0   0   0)

     celldm(1)=  18.897261  celldm(2)=   1.000000  celldm(3)=   0.128470
     celldm(4)=   0.000000  celldm(5)=   0.000000  celldm(6)=   0.000000

     crystal axes: (cart. coord. in units of alat)
               a(1) = (   1.000000   0.000000   0.000000 )  
               a(2) = (   0.000000   1.000000   0.000000 )  
               a(3) = (   0.000000   0.000000   0.128470 )  

     reciprocal axes: (cart. coord. in units 2 pi/alat)
               b(1) = (  1.000000  0.000000  0.000000 )  
               b(2) = (  0.000000  1.000000  0.000000 )  
               b(3) = (  0.000000  0.000000  7.783918 )  


     PseudoPot. # 1 for C  read from file:
     /home/ubuntu/aws/492/C.pbe-n-kjpaw_psl.1.0.0.UPF
     MD5 check sum: 5f16ad9a65e90284d1d834d4ab3b0f7d
     Pseudo is Projector augmented-wave + core cor, Zval =  4.0
     Generated using &quot;atomic&quot; code by A. Dal Corso  v.6.3
     Shape of augmentation charge: PSQ
     Using radial grid of 1073 points,  4 beta functions with: 
                l(1) =   0
                l(2) =   0
                l(3) =   1
                l(4) =   1
     Q(r) pseudized with 0 coefficients 


     atomic species   valence    mass     pseudopotential
        C              4.00    12.01100     C ( 1.00)

     16 Sym. Ops., with inversion, found



   Cartesian axes

     site n.     atom                  positions (alat units)
         1           C   tau(   1) = (   0.0000000   0.0000000   0.0000000  )

     number of k points=    26  Methfessel-Paxton smearing, width (Ry)=  0.0100
                       cart. coord. in units 2pi/alat
        k(    1) = (  -0.5000000  -0.5000000   0.0763129), wk =   0.0784314
        k(    2) = (  -0.5000000  -0.5000000   0.2289388), wk =   0.0784314
        k(    3) = (  -0.5000000  -0.5000000   0.3815646), wk =   0.0784314
        k(    4) = (  -0.5000000  -0.5000000   0.5341905), wk =   0.0784314
        k(    5) = (  -0.5000000  -0.5000000   0.6868163), wk =   0.0784314
        k(    6) = (  -0.5000000  -0.5000000   0.8394422), wk =   0.0784314
        k(    7) = (  -0.5000000  -0.5000000   0.9920680), wk =   0.0784314
        k(    8) = (  -0.5000000  -0.5000000   1.1446939), wk =   0.0784314
        k(    9) = (  -0.5000000  -0.5000000   1.2973197), wk =   0.0784314
        k(   10) = (  -0.5000000  -0.5000000   1.4499456), wk =   0.0784314
        k(   11) = (  -0.5000000  -0.5000000   1.6025714), wk =   0.0784314
        k(   12) = (  -0.5000000  -0.5000000   1.7551973), wk =   0.0784314
        k(   13) = (  -0.5000000  -0.5000000   1.9078231), wk =   0.0784314
        k(   14) = (  -0.5000000  -0.5000000   2.0604490), wk =   0.0784314
        k(   15) = (  -0.5000000  -0.5000000   2.2130748), wk =   0.0784314
        k(   16) = (  -0.5000000  -0.5000000   2.3657007), wk =   0.0784314
        k(   17) = (  -0.5000000  -0.5000000   2.5183265), wk =   0.0784314
        k(   18) = (  -0.5000000  -0.5000000   2.6709524), wk =   0.0784314
        k(   19) = (  -0.5000000  -0.5000000   2.8235783), wk =   0.0784314
        k(   20) = (  -0.5000000  -0.5000000   2.9762041), wk =   0.0784314
        k(   21) = (  -0.5000000  -0.5000000   3.1288300), wk =   0.0784314
        k(   22) = (  -0.5000000  -0.5000000   3.2814558), wk =   0.0784314
        k(   23) = (  -0.5000000  -0.5000000   3.4340817), wk =   0.0784314
        k(   24) = (  -0.5000000  -0.5000000   3.5867075), wk =   0.0784314
        k(   25) = (  -0.5000000  -0.5000000   3.7393334), wk =   0.0784314
        k(   26) = (  -0.5000000  -0.5000000  -3.8919592), wk =   0.0392157

     Dense  grid:    35379 G-vectors     FFT dimensions: (  81,  81,  12)

     Estimated max dynamical RAM per process >      55.64 MB

     Check: negative core charge=   -0.000012

     Initial potential from superposition of free atoms

     starting charge       4.0000, renormalised to       4.0000

     negative rho (up, down):  4.413E-04 0.000E+00
     Starting wfcs are    4 randomized atomic wfcs +    2 random wfcs
     Checking if some PAW data can be deallocated... 

     total cpu time spent up to now is        1.0 secs

     Self-consistent Calculation

     iteration #  1     ecut=    45.00 Ry     beta= 0.70
     Davidson diagonalization with overlap
     ethr =  1.00E-02,  avg # of iterations =  6.0

     negative rho (up, down):  6.461E-04 0.000E+00

     total cpu time spent up to now is        2.9 secs

     total energy              =     -18.34539458 Ry
     estimated scf accuracy    <       0.12839237 Ry

     iteration #  2     ecut=    45.00 Ry     beta= 0.70
     Davidson diagonalization with overlap
     ethr =  3.21E-03,  avg # of iterations =  2.1

     negative rho (up, down):  6.980E-04 0.000E+00

     total cpu time spent up to now is        4.1 secs

     total energy              =     -18.37113172 Ry
     estimated scf accuracy    <       0.00378423 Ry

     iteration #  3     ecut=    45.00 Ry     beta= 0.70
     Davidson diagonalization with overlap
     ethr =  9.46E-05,  avg # of iterations =  3.7

     negative rho (up, down):  7.566E-04 0.000E+00

     total cpu time spent up to now is        5.5 secs

     total energy              =     -18.37163753 Ry
     estimated scf accuracy    <       0.00009861 Ry

     iteration #  4     ecut=    45.00 Ry     beta= 0.70
     Davidson diagonalization with overlap
     c_bands:  1 eigenvalues not converged
     c_bands:  1 eigenvalues not converged
     c_bands:  1 eigenvalues not converged
     c_bands:  1 eigenvalues not converged
     c_bands:  1 eigenvalues not converged
     c_bands:  1 eigenvalues not converged
     c_bands:  1 eigenvalues not converged
     ethr =  2.47E-06,  avg # of iterations = 12.0

     negative rho (up, down):  7.634E-04 0.000E+00

     total cpu time spent up to now is        7.6 secs

     End of self-consistent calculation

          k =-0.5000-0.5000 0.0763 (  4496 PWs)   bands (ev):

   -20.6788  -9.7261  -9.7261   0.1761   0.3279   0.3300

          k =-0.5000-0.5000 0.2289 (  4496 PWs)   bands (ev):

   -20.6391  -9.6599  -9.6599   0.2420   0.3978   0.4031

          k =-0.5000-0.5000 0.3816 (  4488 PWs)   bands (ev):

   -20.5600  -9.5276  -9.5276   0.3739   0.5376   0.5971

          k =-0.5000-0.5000 0.5342 (  4476 PWs)   bands (ev):

   -20.4419  -9.3293  -9.3293   0.5712   0.7474   0.7488

          k =-0.5000-0.5000 0.6868 (  4480 PWs)   bands (ev):

   -20.2855  -9.0652  -9.0652   0.8338   1.0270   1.0293

          k =-0.5000-0.5000 0.8394 (  4488 PWs)   bands (ev):

   -20.0917  -8.7355  -8.7355   1.1609   1.3765   1.3791

          k =-0.5000-0.5000 0.9921 (  4480 PWs)   bands (ev):

   -19.8617  -8.3407  -8.3407   1.5514   1.7959   1.7994

          k =-0.5000-0.5000 1.1447 (  4472 PWs)   bands (ev):

   -19.5970  -7.8811  -7.8811   2.0042   2.2851   2.2887

          k =-0.5000-0.5000 1.2973 (  4484 PWs)   bands (ev):

   -19.2993  -7.3574  -7.3574   2.5169   2.8442   2.8447

          k =-0.5000-0.5000 1.4499 (  4484 PWs)   bands (ev):

   -18.9707  -6.7702  -6.7702   3.0861   3.4730   3.4732

          k =-0.5000-0.5000 1.6026 (  4448 PWs)   bands (ev):

   -18.6138  -6.1207  -6.1207   3.7063   4.1716   4.1716

          k =-0.5000-0.5000 1.7552 (  4448 PWs)   bands (ev):

   -18.2315  -5.4099  -5.4099   4.3680   4.9397   4.9490

          k =-0.5000-0.5000 1.9078 (  4440 PWs)   bands (ev):

   -17.8272  -4.6394  -4.6394   5.0536   5.7774   5.7788

          k =-0.5000-0.5000 2.0604 (  4432 PWs)   bands (ev):

   -17.4048  -3.8112  -3.8112   5.7293   6.6846   6.6851

          k =-0.5000-0.5000 2.2131 (  4416 PWs)   bands (ev):

   -16.9691  -2.9280  -2.9280   6.3284   7.6609   7.6634

          k =-0.5000-0.5000 2.3657 (  4400 PWs)   bands (ev):

   -16.5254  -1.9933  -1.9933   6.7393   8.7062   8.7070

          k =-0.5000-0.5000 2.5183 (  4388 PWs)   bands (ev):

   -16.0801  -1.0119  -1.0119   6.8520   9.8200   9.9235

          k =-0.5000-0.5000 2.6710 (  4380 PWs)   bands (ev):

   -15.6403   0.0094   0.0094   6.6708  11.0016  11.0019

          k =-0.5000-0.5000 2.8236 (  4372 PWs)   bands (ev):

   -15.2144   1.0610   1.0610   6.3017  12.2495  12.2500

          k =-0.5000-0.5000 2.9762 (  4372 PWs)   bands (ev):

   -14.8119   2.1291   2.1291   5.8499  13.5613  13.5829

          k =-0.5000-0.5000 3.1288 (  4344 PWs)   bands (ev):

   -14.4432   3.1927   3.1927   5.3871  14.9309  14.9311

          k =-0.5000-0.5000 3.2815 (  4356 PWs)   bands (ev):

   -14.1195   4.2199   4.2199   4.9591  16.3395  16.3395

          k =-0.5000-0.5000 3.4341 (  4336 PWs)   bands (ev):

   -13.8521   4.5971   5.1623   5.1623  17.7043  17.7044

          k =-0.5000-0.5000 3.5867 (  4328 PWs)   bands (ev):

   -13.6519   4.3232   5.9481   5.9481  18.5365  18.5365

          k =-0.5000-0.5000 3.7393 (  4348 PWs)   bands (ev):

   -13.5278   4.1527   6.4832   6.4832  18.4887  18.4888

          k =-0.5000-0.5000-3.8920 (  4320 PWs)   bands (ev):

   -13.4857   4.0949   6.6753   6.6753  18.3853  18.3854

     the Fermi energy is    -4.5970 ev

!    total energy              =     -18.37164121 Ry
     total all-electron energy =       -76.135738 Ry
     estimated scf accuracy    <       0.00000018 Ry
     smearing contrib. (-TS)   =      -0.00016181 Ry
     internal energy E=F+TS    =     -18.37147941 Ry

     The total energy is F=E-TS. E is the sum of the following terms:
     one-electron contribution =     -32.76969933 Ry
     hartree contribution      =      16.86219814 Ry
     xc contribution           =      -4.53980835 Ry
     ewald contribution        =       8.24599272 Ry
     one-center paw contrib.   =      -6.17016258 Ry

     convergence has been achieved in   4 iterations

     Writing all to output data dir ./outdir/1c_dos.save/

     init_run     :      0.80s CPU      0.86s WALL (       1 calls)
     electrons    :      6.54s CPU      6.59s WALL (       1 calls)

     Called by init_run:
     wfcinit      :      0.42s CPU      0.43s WALL (       1 calls)
     potinit      :      0.09s CPU      0.09s WALL (       1 calls)
     hinit0       :      0.23s CPU      0.25s WALL (       1 calls)

     Called by electrons:
     c_bands      :      5.51s CPU      5.54s WALL (       4 calls)
     sum_band     :      0.72s CPU      0.73s WALL (       4 calls)
     v_of_rho     :      0.15s CPU      0.16s WALL (       5 calls)
     newd         :      0.09s CPU      0.10s WALL (       5 calls)
     PAW_pot      :      0.14s CPU      0.14s WALL (       5 calls)
     mix_rho      :      0.01s CPU      0.01s WALL (       4 calls)

     Called by c_bands:
     init_us_2    :      0.14s CPU      0.14s WALL (     234 calls)
     init_us_2:cp :      0.14s CPU      0.14s WALL (     234 calls)
     cegterg      :      5.37s CPU      5.41s WALL (     104 calls)

     Called by *egterg:
     cdiaghg      :      0.05s CPU      0.06s WALL (     721 calls)
     h_psi        :      4.23s CPU      4.26s WALL (     747 calls)
     s_psi        :      0.18s CPU      0.19s WALL (     747 calls)
     g_psi        :      0.03s CPU      0.03s WALL (     617 calls)

     Called by h_psi:
     h_psi:calbec :      0.19s CPU      0.19s WALL (     747 calls)
     vloc_psi     :      3.83s CPU      3.85s WALL (     747 calls)
     add_vuspsi   :      0.18s CPU      0.18s WALL (     747 calls)

     General routines
     calbec       :      0.24s CPU      0.24s WALL (     851 calls)
     fft          :      0.13s CPU      0.15s WALL (      55 calls)
     ffts         :      0.00s CPU      0.00s WALL (       4 calls)
     fftw         :      3.80s CPU      3.81s WALL (    5388 calls)

     Parallel routines

     PWSCF        :      7.44s CPU      7.60s WALL


   This run was terminated on:  13: 4:34  14May2023            

=------------------------------------------------------------------------------=
   JOB DONE.
=------------------------------------------------------------------------------=
