
     Program PWSCF v.7.2 starts on 14May2023 at 13: 8:52 

     This program is part of the open-source Quantum ESPRESSO suite
     for quantum simulation of materials; please cite
         "P. Giannozzi et al., J. Phys.:Condens. Matter 21 395502 (2009);
         "P. Giannozzi et al., J. Phys.:Condens. Matter 29 465901 (2017);
         "P. Giannozzi et al., J. Chem. Phys. 152 154105 (2020);
          URL http://www.quantum-espresso.org", 
     in publications or presentations arising from this work. More details at
     http://www.quantum-espresso.org/quote

     Parallel version (MPI), running on     1 processors

     MPI processes distributed on     1 nodes
     147 MiB available memory on the printing compute node when the environment starts

     Reading input from 2_c.nscf.in

     Current dimensions of program PWSCF are:
     Max number of different atomic species (ntypx) = 10
     Max number of k-points (npk) =  40000
     Max angular momentum in pseudopotentials (lmaxx) =  4
     file C.pbe-n-kjpaw_psl.1.0.0.UPF: wavefunction(s)  2S 2P renormalized

     Atomic positions and unit cell read from directory:
     ./outdir/1c_dos.save/


     Subspace diagonalization in iterative solution of the eigenvalue problem:
     a serial algorithm will be used


     G-vector sticks info
     --------------------
     sticks:   dense  smooth     PW     G-vecs:    dense   smooth      PW
     Sum        5129    5129   1829                35379    35379    7491

     Using Slab Decomposition



     bravais-lattice index     =            6
     lattice parameter (alat)  =      18.8973  a.u.
     unit-cell volume          =     866.9585 (a.u.)^3
     number of atoms/cell      =            1
     number of atomic types    =            1
     number of electrons       =         4.00
     number of Kohn-Sham states=            6
     kinetic-energy cutoff     =      45.0000  Ry
     charge density cutoff     =     180.0000  Ry
     Exchange-correlation= SLA  PW   PBX  PBC
                           (   1   4   3   4   0   0   0)

     celldm(1)=  18.897261  celldm(2)=   1.000000  celldm(3)=   0.128470
     celldm(4)=   0.000000  celldm(5)=   0.000000  celldm(6)=   0.000000

     crystal axes: (cart. coord. in units of alat)
               a(1) = (   1.000000   0.000000   0.000000 )  
               a(2) = (   0.000000   1.000000   0.000000 )  
               a(3) = (   0.000000   0.000000   0.128470 )  

     reciprocal axes: (cart. coord. in units 2 pi/alat)
               b(1) = (  1.000000  0.000000  0.000000 )  
               b(2) = (  0.000000  1.000000  0.000000 )  
               b(3) = (  0.000000  0.000000  7.783918 )  


     PseudoPot. # 1 for C  read from file:
     /home/ubuntu/aws/492/C.pbe-n-kjpaw_psl.1.0.0.UPF
     MD5 check sum: 5f16ad9a65e90284d1d834d4ab3b0f7d
     Pseudo is Projector augmented-wave + core cor, Zval =  4.0
     Generated using &quot;atomic&quot; code by A. Dal Corso  v.6.3
     Shape of augmentation charge: PSQ
     Using radial grid of 1073 points,  4 beta functions with: 
                l(1) =   0
                l(2) =   0
                l(3) =   1
                l(4) =   1
     Q(r) pseudized with 0 coefficients 


     atomic species   valence    mass     pseudopotential
        C              4.00    12.01100     C ( 1.00)

     16 Sym. Ops., with inversion, found



   Cartesian axes

     site n.     atom                  positions (alat units)
         1           C   tau(   1) = (   0.0000000   0.0000000   0.0000000  )

     number of k points=    41 (tetrahedron method)
                       cart. coord. in units 2pi/alat
        k(    1) = (  -0.5000000  -0.5000000   0.0480489), wk =   0.0493827
        k(    2) = (  -0.5000000  -0.5000000   0.1441466), wk =   0.0493827
        k(    3) = (  -0.5000000  -0.5000000   0.2402444), wk =   0.0493827
        k(    4) = (  -0.5000000  -0.5000000   0.3363422), wk =   0.0493827
        k(    5) = (  -0.5000000  -0.5000000   0.4324399), wk =   0.0493827
        k(    6) = (  -0.5000000  -0.5000000   0.5285377), wk =   0.0493827
        k(    7) = (  -0.5000000  -0.5000000   0.6246354), wk =   0.0493827
        k(    8) = (  -0.5000000  -0.5000000   0.7207332), wk =   0.0493827
        k(    9) = (  -0.5000000  -0.5000000   0.8168309), wk =   0.0493827
        k(   10) = (  -0.5000000  -0.5000000   0.9129287), wk =   0.0493827
        k(   11) = (  -0.5000000  -0.5000000   1.0090265), wk =   0.0493827
        k(   12) = (  -0.5000000  -0.5000000   1.1051242), wk =   0.0493827
        k(   13) = (  -0.5000000  -0.5000000   1.2012220), wk =   0.0493827
        k(   14) = (  -0.5000000  -0.5000000   1.2973197), wk =   0.0493827
        k(   15) = (  -0.5000000  -0.5000000   1.3934175), wk =   0.0493827
        k(   16) = (  -0.5000000  -0.5000000   1.4895153), wk =   0.0493827
        k(   17) = (  -0.5000000  -0.5000000   1.5856130), wk =   0.0493827
        k(   18) = (  -0.5000000  -0.5000000   1.6817108), wk =   0.0493827
        k(   19) = (  -0.5000000  -0.5000000   1.7778085), wk =   0.0493827
        k(   20) = (  -0.5000000  -0.5000000   1.8739063), wk =   0.0493827
        k(   21) = (  -0.5000000  -0.5000000   1.9700040), wk =   0.0493827
        k(   22) = (  -0.5000000  -0.5000000   2.0661018), wk =   0.0493827
        k(   23) = (  -0.5000000  -0.5000000   2.1621996), wk =   0.0493827
        k(   24) = (  -0.5000000  -0.5000000   2.2582973), wk =   0.0493827
        k(   25) = (  -0.5000000  -0.5000000   2.3543951), wk =   0.0493827
        k(   26) = (  -0.5000000  -0.5000000   2.4504928), wk =   0.0493827
        k(   27) = (  -0.5000000  -0.5000000   2.5465906), wk =   0.0493827
        k(   28) = (  -0.5000000  -0.5000000   2.6426884), wk =   0.0493827
        k(   29) = (  -0.5000000  -0.5000000   2.7387861), wk =   0.0493827
        k(   30) = (  -0.5000000  -0.5000000   2.8348839), wk =   0.0493827
        k(   31) = (  -0.5000000  -0.5000000   2.9309816), wk =   0.0493827
        k(   32) = (  -0.5000000  -0.5000000   3.0270794), wk =   0.0493827
        k(   33) = (  -0.5000000  -0.5000000   3.1231771), wk =   0.0493827
        k(   34) = (  -0.5000000  -0.5000000   3.2192749), wk =   0.0493827
        k(   35) = (  -0.5000000  -0.5000000   3.3153727), wk =   0.0493827
        k(   36) = (  -0.5000000  -0.5000000   3.4114704), wk =   0.0493827
        k(   37) = (  -0.5000000  -0.5000000   3.5075682), wk =   0.0493827
        k(   38) = (  -0.5000000  -0.5000000   3.6036659), wk =   0.0493827
        k(   39) = (  -0.5000000  -0.5000000   3.6997637), wk =   0.0493827
        k(   40) = (  -0.5000000  -0.5000000   3.7958615), wk =   0.0493827
        k(   41) = (  -0.5000000  -0.5000000  -3.8919592), wk =   0.0246914

     Dense  grid:    35379 G-vectors     FFT dimensions: (  81,  81,  12)

     Estimated max dynamical RAM per process >      35.34 MB

     Check: negative core charge=   -0.000012

     The potential is recalculated from file :
     ./outdir/1c_dos.save/charge-density


     negative rho (up, down):  7.634E-04 0.000E+00
     Starting wfcs are    4 randomized atomic wfcs +    2 random wfcs
     Checking if some PAW data can be deallocated... 

     Band Structure Calculation
     Davidson diagonalization with overlap

     ethr =  2.50E-08,  avg # of iterations = 40.8

     total cpu time spent up to now is       14.7 secs

     End of band structure calculation

          k =-0.5000-0.5000 0.0480 (  4512 PWs)   bands (ev):

   -20.6767  -9.7270  -9.7270   0.1732   0.3231   0.3231

          k =-0.5000-0.5000 0.1441 (  4504 PWs)   bands (ev):

   -20.6610  -9.7007  -9.7007   0.1994   0.3509   0.3509

          k =-0.5000-0.5000 0.2402 (  4496 PWs)   bands (ev):

   -20.6295  -9.6483  -9.6483   0.2517   0.4063   0.4063

          k =-0.5000-0.5000 0.3363 (  4488 PWs)   bands (ev):

   -20.5825  -9.5696  -9.5696   0.3301   0.4894   0.4894

          k =-0.5000-0.5000 0.4324 (  4480 PWs)   bands (ev):

   -20.5199  -9.4647  -9.4647   0.4345   0.6003   0.6003

          k =-0.5000-0.5000 0.5285 (  4476 PWs)   bands (ev):

   -20.4419  -9.3337  -9.3337   0.5649   0.7389   0.7389

          k =-0.5000-0.5000 0.6246 (  4484 PWs)   bands (ev):

   -20.3487  -9.1766  -9.1766   0.7211   0.9052   0.9052

          k =-0.5000-0.5000 0.7207 (  4488 PWs)   bands (ev):

   -20.2405  -8.9934  -8.9934   0.9030   1.0992   1.0992

          k =-0.5000-0.5000 0.8168 (  4496 PWs)   bands (ev):

   -20.1176  -8.7843  -8.7843   1.1105   1.3209   1.3209

          k =-0.5000-0.5000 0.9129 (  4488 PWs)   bands (ev):

   -19.9803  -8.5494  -8.5494   1.3432   1.5703   1.5703

          k =-0.5000-0.5000 1.0090 (  4464 PWs)   bands (ev):

   -19.8288  -8.2886  -8.2886   1.6009   1.8474   1.8474

          k =-0.5000-0.5000 1.1051 (  4448 PWs)   bands (ev):

   -19.6637  -8.0023  -8.0023   1.8831   2.1521   2.1521

          k =-0.5000-0.5000 1.2012 (  4472 PWs)   bands (ev):

   -19.4853  -7.6904  -7.6904   2.1894   2.4846   2.4846

          k =-0.5000-0.5000 1.2973 (  4484 PWs)   bands (ev):

   -19.2941  -7.3532  -7.3532   2.5190   2.8447   2.8447

          k =-0.5000-0.5000 1.3934 (  4476 PWs)   bands (ev):

   -19.0907  -6.9909  -6.9909   2.8711   3.2325   3.2325

          k =-0.5000-0.5000 1.4895 (  4476 PWs)   bands (ev):

   -18.8756  -6.6036  -6.6036   3.2445   3.6479   3.6479

          k =-0.5000-0.5000 1.5856 (  4468 PWs)   bands (ev):

   -18.6496  -6.1917  -6.1917   3.6374   4.0910   4.0910

          k =-0.5000-0.5000 1.6817 (  4448 PWs)   bands (ev):

   -18.4133  -5.7555  -5.7555   4.0474   4.5617   4.5617

          k =-0.5000-0.5000 1.7778 (  4456 PWs)   bands (ev):

   -18.1676  -5.2952  -5.2952   4.4710   5.0600   5.0600

          k =-0.5000-0.5000 1.8739 (  4440 PWs)   bands (ev):

   -17.9134  -4.8114  -4.8114   4.9030   5.5858   5.5858

          k =-0.5000-0.5000 1.9700 (  4424 PWs)   bands (ev):

   -17.6517  -4.3045  -4.3045   5.3354   6.1392   6.1392

          k =-0.5000-0.5000 2.0661 (  4432 PWs)   bands (ev):

   -17.3835  -3.7752  -3.7752   5.7560   6.7201   6.7201

          k =-0.5000-0.5000 2.1622 (  4424 PWs)   bands (ev):

   -17.1101  -3.2240  -3.2240   6.1461   7.3284   7.3284

          k =-0.5000-0.5000 2.2583 (  4400 PWs)   bands (ev):

   -16.8328  -2.6519  -2.6519   6.4789   7.9641   7.9641

          k =-0.5000-0.5000 2.3544 (  4400 PWs)   bands (ev):

   -16.5530  -2.0599  -2.0599   6.7216   8.6270   8.6270

          k =-0.5000-0.5000 2.4505 (  4388 PWs)   bands (ev):

   -16.2723  -1.4492  -1.4492   6.8457   9.3172   9.3172

          k =-0.5000-0.5000 2.5466 (  4380 PWs)   bands (ev):

   -15.9924  -0.8212  -0.8212   6.8423  10.0343  10.0343

          k =-0.5000-0.5000 2.6427 (  4372 PWs)   bands (ev):

   -15.7153  -0.1780  -0.1780   6.7266  10.7783  10.7783

          k =-0.5000-0.5000 2.7388 (  4356 PWs)   bands (ev):

   -15.4431   0.4781   0.4781   6.5276  11.5487  11.5487

          k =-0.5000-0.5000 2.8349 (  4380 PWs)   bands (ev):

   -15.1780   1.1442   1.1442   6.2747  12.3452  12.3452

          k =-0.5000-0.5000 2.9310 (  4372 PWs)   bands (ev):

   -14.9224   1.8164   1.8164   5.9924  13.1669  13.1669

          k =-0.5000-0.5000 3.0271 (  4356 PWs)   bands (ev):

   -14.6789   2.4899   2.4899   5.6991  14.0125  14.0125

          k =-0.5000-0.5000 3.1232 (  4344 PWs)   bands (ev):

   -14.4503   3.1582   3.1582   5.4088  14.8798  14.8798

          k =-0.5000-0.5000 3.2193 (  4356 PWs)   bands (ev):

   -14.2394   3.8130   3.8130   5.1320  15.7639  15.7639

          k =-0.5000-0.5000 3.3154 (  4344 PWs)   bands (ev):

   -14.0489   4.4435   4.4435   4.8771  16.6536  16.6536

          k =-0.5000-0.5000 3.4115 (  4336 PWs)   bands (ev):

   -13.8819   4.6506   5.0353   5.0353  17.5157  17.5157

          k =-0.5000-0.5000 3.5076 (  4348 PWs)   bands (ev):

   -13.7409   4.4581   5.5704   5.5704  18.2360  18.2360

          k =-0.5000-0.5000 3.6037 (  4328 PWs)   bands (ev):

   -13.6284   4.3040   6.0266   6.0266  18.5620  18.5620

          k =-0.5000-0.5000 3.6998 (  4340 PWs)   bands (ev):

   -13.5464   4.1914   6.3791   6.3791  18.5348  18.5348

          k =-0.5000-0.5000 3.7959 (  4344 PWs)   bands (ev):

   -13.4965   4.1229   6.6032   6.6032  18.4328  18.4328

          k =-0.5000-0.5000-3.8920 (  4320 PWs)   bands (ev):

   -13.4798   4.0999   6.6803   6.6803  18.3878  18.3878

     the Fermi energy is    -4.4313 ev
     (compare with:    -4.5970 eV, computed in scf)

     Writing all to output data dir ./outdir/1c_dos.save/

     init_run     :      0.37s CPU      0.40s WALL (       1 calls)
     electrons    :     13.61s CPU     14.21s WALL (       1 calls)

     Called by init_run:
     wfcinit      :      0.00s CPU      0.00s WALL (       1 calls)
     potinit      :      0.06s CPU      0.07s WALL (       1 calls)
     hinit0       :      0.25s CPU      0.25s WALL (       1 calls)

     Called by electrons:
     c_bands      :     13.61s CPU     14.21s WALL (       1 calls)
     v_of_rho     :      0.03s CPU      0.04s WALL (       1 calls)
     newd         :      0.02s CPU      0.03s WALL (       1 calls)
     PAW_pot      :      0.02s CPU      0.03s WALL (       1 calls)

     Called by c_bands:
     init_us_2    :      0.02s CPU      0.02s WALL (      41 calls)
     init_us_2:cp :      0.02s CPU      0.02s WALL (      41 calls)
     cegterg      :     12.95s CPU     13.52s WALL (     107 calls)

     Called by *egterg:
     cdiaghg      :      0.13s CPU      0.13s WALL (    1714 calls)
     h_psi        :      9.43s CPU      9.85s WALL (    1821 calls)
     s_psi        :      0.42s CPU      0.43s WALL (    1821 calls)
     g_psi        :      0.09s CPU      0.09s WALL (    1673 calls)

     Called by h_psi:
     h_psi:calbec :      0.43s CPU      0.45s WALL (    1821 calls)
     vloc_psi     :      8.54s CPU      8.92s WALL (    1821 calls)
     add_vuspsi   :      0.40s CPU      0.42s WALL (    1821 calls)

     General routines
     calbec       :      0.42s CPU      0.45s WALL (    1821 calls)
     fft          :      0.10s CPU      0.11s WALL (      12 calls)
     fftw         :      7.49s CPU      7.83s WALL (   10366 calls)
     davcio       :      0.01s CPU      0.02s WALL (      82 calls)

     Parallel routines

     PWSCF        :     14.09s CPU     14.73s WALL


   This run was terminated on:  13: 9: 7  14May2023            

=------------------------------------------------------------------------------=
   JOB DONE.
=------------------------------------------------------------------------------=
