
     Program PROJWFC v.7.2 starts on 15May2023 at 23:17:11 

     This program is part of the open-source Quantum ESPRESSO suite
     for quantum simulation of materials; please cite
         "P. Giannozzi et al., J. Phys.:Condens. Matter 21 395502 (2009);
         "P. Giannozzi et al., J. Phys.:Condens. Matter 29 465901 (2017);
         "P. Giannozzi et al., J. Chem. Phys. 152 154105 (2020);
          URL http://www.quantum-espresso.org", 
     in publications or presentations arising from this work. More details at
     http://www.quantum-espresso.org/quote

     Parallel version (MPI), running on     1 processors

     MPI processes distributed on     1 nodes
     128 MiB available memory on the printing compute node when the environment starts


     Reading xml data from directory:

     ./outdir/1c_dos.save/
     file C.pbe-n-kjpaw_psl.1.0.0.UPF: wavefunction(s)  2S 2P renormalized

     IMPORTANT: XC functional enforced from input :
     Exchange-correlation= PBE
                           (   1   4   3   4   0   0   0)
     Any further DFT definition will be discarded
     Please, verify this is what you really want


     G-vector sticks info
     --------------------
     sticks:   dense  smooth     PW     G-vecs:    dense   smooth      PW
     Sum        5129    5129   1829                35379    35379    7491

     Using Slab Decomposition


     Check: negative core charge=   -0.000012

     negative rho (up, down):  7.634E-04 0.000E+00

     Linear tetrahedron method (read from file) 
     [opt_tetra]  Linear tetrahedron method is used.

     Calling projwave .... 
     Subspace diagonalization in iterative solution of the eigenvalue problem:
     a serial algorithm will be used


  Problem Sizes 
  natomwfc =            4
  nbnd     =            6
  nkstot   =           41
  npwx     =         4512
  nkb      =            8


     Atomic states used for projection
     (read from pseudopotential files):

     state #   1: atom   1 (C  ), wfc  1 (l=0 m= 1)
     state #   2: atom   1 (C  ), wfc  2 (l=1 m= 1)
     state #   3: atom   1 (C  ), wfc  2 (l=1 m= 2)
     state #   4: atom   1 (C  ), wfc  2 (l=1 m= 3)

 k =  -0.5000000000 -0.5000000000  0.0480488792
==== e(   1) =   -20.67673 eV ==== 
     psi = 0.981*[#   1]
    |psi|^2 = 0.982
==== e(   2) =    -9.72698 eV ==== 
     psi = 0.480*[#   3]+0.480*[#   4]
    |psi|^2 = 0.960
==== e(   3) =    -9.72698 eV ==== 
     psi = 0.480*[#   3]+0.480*[#   4]
    |psi|^2 = 0.960
==== e(   4) =     0.17320 eV ==== 
     psi = 0.008*[#   1]
    |psi|^2 = 0.008
==== e(   5) =     0.32313 eV ==== 
     psi = 0.006*[#   3]+0.006*[#   4]
    |psi|^2 = 0.012
==== e(   6) =     0.32314 eV ==== 
     psi = 0.006*[#   3]+0.006*[#   4]
    |psi|^2 = 0.012

 k =  -0.5000000000 -0.5000000000  0.1441466375
==== e(   1) =   -20.66099 eV ==== 
     psi = 0.974*[#   1]+0.008*[#   2]
    |psi|^2 = 0.982
==== e(   2) =    -9.70074 eV ==== 
     psi = 0.480*[#   3]+0.480*[#   4]
    |psi|^2 = 0.960
==== e(   3) =    -9.70074 eV ==== 
     psi = 0.480*[#   3]+0.480*[#   4]
    |psi|^2 = 0.960
==== e(   4) =     0.19935 eV ==== 
     psi = 0.007*[#   1]+0.006*[#   2]
    |psi|^2 = 0.013
==== e(   5) =     0.35085 eV ==== 
     psi = 0.006*[#   3]+0.006*[#   4]
    |psi|^2 = 0.012
==== e(   6) =     0.35087 eV ==== 
     psi = 0.006*[#   3]+0.006*[#   4]
    |psi|^2 = 0.012

 k =  -0.5000000000 -0.5000000000  0.2402443958
==== e(   1) =   -20.62955 eV ==== 
     psi = 0.960*[#   1]+0.022*[#   2]
    |psi|^2 = 0.982
==== e(   2) =    -9.64826 eV ==== 
     psi = 0.481*[#   3]+0.481*[#   4]
    |psi|^2 = 0.961
==== e(   3) =    -9.64826 eV ==== 
     psi = 0.481*[#   3]+0.481*[#   4]
    |psi|^2 = 0.961
==== e(   4) =     0.25165 eV ==== 
     psi = 0.016*[#   2]+0.005*[#   1]
    |psi|^2 = 0.021
==== e(   5) =     0.40629 eV ==== 
     psi = 0.006*[#   3]+0.006*[#   4]
    |psi|^2 = 0.011
==== e(   6) =     0.40629 eV ==== 
     psi = 0.006*[#   3]+0.006*[#   4]
    |psi|^2 = 0.011

 k =  -0.5000000000 -0.5000000000  0.3363421541
==== e(   1) =   -20.58247 eV ==== 
     psi = 0.939*[#   1]+0.042*[#   2]
    |psi|^2 = 0.981
==== e(   2) =    -9.56958 eV ==== 
     psi = 0.481*[#   3]+0.481*[#   4]
    |psi|^2 = 0.963
==== e(   3) =    -9.56958 eV ==== 
     psi = 0.481*[#   3]+0.481*[#   4]
    |psi|^2 = 0.963
==== e(   4) =     0.33005 eV ==== 
     psi = 0.028*[#   2]+0.003*[#   1]
    |psi|^2 = 0.031
==== e(   5) =     0.48944 eV ==== 
     psi = 0.005*[#   3]+0.005*[#   4]
    |psi|^2 = 0.011
==== e(   6) =     0.48944 eV ==== 
     psi = 0.005*[#   3]+0.005*[#   4]
    |psi|^2 = 0.011

 k =  -0.5000000000 -0.5000000000  0.4324399125
==== e(   1) =   -20.51987 eV ==== 
     psi = 0.913*[#   1]+0.067*[#   2]
    |psi|^2 = 0.981
==== e(   2) =    -9.46471 eV ==== 
     psi = 0.482*[#   3]+0.482*[#   4]
    |psi|^2 = 0.965
==== e(   3) =    -9.46471 eV ==== 
     psi = 0.482*[#   3]+0.482*[#   4]
    |psi|^2 = 0.965
==== e(   4) =     0.43449 eV ==== 
     psi = 0.041*[#   2]+0.002*[#   1]
    |psi|^2 = 0.043
==== e(   5) =     0.60030 eV ==== 
     psi = 0.005*[#   3]+0.005*[#   4]
    |psi|^2 = 0.010
==== e(   6) =     0.60030 eV ==== 
     psi = 0.005*[#   3]+0.005*[#   4]
    |psi|^2 = 0.010

 k =  -0.5000000000 -0.5000000000  0.5285376708
==== e(   1) =   -20.44188 eV ==== 
     psi = 0.884*[#   1]+0.096*[#   2]
    |psi|^2 = 0.980
==== e(   2) =    -9.33369 eV ==== 
     psi = 0.484*[#   3]+0.484*[#   4]
    |psi|^2 = 0.967
==== e(   3) =    -9.33369 eV ==== 
     psi = 0.484*[#   3]+0.484*[#   4]
    |psi|^2 = 0.967
==== e(   4) =     0.56488 eV ==== 
     psi = 0.053*[#   2]
    |psi|^2 = 0.053
==== e(   5) =     0.73888 eV ==== 
     psi = 0.005*[#   3]+0.005*[#   4]
    |psi|^2 = 0.010
==== e(   6) =     0.73888 eV ==== 
     psi = 0.005*[#   3]+0.005*[#   4]
    |psi|^2 = 0.010

 k =  -0.5000000000 -0.5000000000  0.6246354291
==== e(   1) =   -20.34869 eV ==== 
     psi = 0.851*[#   1]+0.128*[#   2]
    |psi|^2 = 0.979
==== e(   2) =    -9.17658 eV ==== 
     psi = 0.485*[#   3]+0.485*[#   4]
    |psi|^2 = 0.970
==== e(   3) =    -9.17658 eV ==== 
     psi = 0.485*[#   3]+0.485*[#   4]
    |psi|^2 = 0.970
==== e(   4) =     0.72112 eV ==== 
     psi = 0.062*[#   2]
    |psi|^2 = 0.062
==== e(   5) =     0.90517 eV ==== 
     psi = 0.004*[#   3]+0.004*[#   4]
    |psi|^2 = 0.009
==== e(   6) =     0.90517 eV ==== 
     psi = 0.004*[#   3]+0.004*[#   4]
    |psi|^2 = 0.009

 k =  -0.5000000000 -0.5000000000  0.7207331875
==== e(   1) =   -20.24052 eV ==== 
     psi = 0.816*[#   1]+0.162*[#   2]
    |psi|^2 = 0.979
==== e(   2) =    -8.99344 eV ==== 
     psi = 0.486*[#   3]+0.486*[#   4]
    |psi|^2 = 0.973
==== e(   3) =    -8.99344 eV ==== 
     psi = 0.486*[#   3]+0.486*[#   4]
    |psi|^2 = 0.973
==== e(   4) =     0.90305 eV ==== 
     psi = 0.068*[#   2]
    |psi|^2 = 0.068
==== e(   5) =     1.09916 eV ==== 
     psi = 0.004*[#   3]+0.004*[#   4]
    |psi|^2 = 0.008
==== e(   6) =     1.09917 eV ==== 
     psi = 0.004*[#   3]+0.004*[#   4]
    |psi|^2 = 0.008

 k =  -0.5000000000 -0.5000000000  0.8168309458
==== e(   1) =   -20.11761 eV ==== 
     psi = 0.780*[#   1]+0.197*[#   2]
    |psi|^2 = 0.978
==== e(   2) =    -8.78434 eV ==== 
     psi = 0.488*[#   3]+0.488*[#   4]
    |psi|^2 = 0.976
==== e(   3) =    -8.78434 eV ==== 
     psi = 0.488*[#   3]+0.488*[#   4]
    |psi|^2 = 0.976
==== e(   4) =     1.11049 eV ==== 
     psi = 0.071*[#   2]
    |psi|^2 = 0.071
==== e(   5) =     1.32086 eV ==== 
     psi = 0.004*[#   3]+0.004*[#   4]
    |psi|^2 = 0.007
==== e(   6) =     1.32086 eV ==== 
     psi = 0.004*[#   3]+0.004*[#   4]
    |psi|^2 = 0.007

 k =  -0.5000000000 -0.5000000000  0.9129287041
==== e(   1) =   -19.98027 eV ==== 
     psi = 0.744*[#   1]+0.233*[#   2]
    |psi|^2 = 0.977
==== e(   2) =    -8.54937 eV ==== 
     psi = 0.489*[#   3]+0.489*[#   4]
    |psi|^2 = 0.979
==== e(   3) =    -8.54937 eV ==== 
     psi = 0.489*[#   3]+0.489*[#   4]
    |psi|^2 = 0.979
==== e(   4) =     1.34319 eV ==== 
     psi = 0.070*[#   2]
    |psi|^2 = 0.071
==== e(   5) =     1.57026 eV ==== 
     psi = 0.003*[#   3]+0.003*[#   4]
    |psi|^2 = 0.006
==== e(   6) =     1.57026 eV ==== 
     psi = 0.003*[#   3]+0.003*[#   4]
    |psi|^2 = 0.006

 k =  -0.5000000000 -0.5000000000  1.0090264624
==== e(   1) =   -19.82882 eV ==== 
     psi = 0.707*[#   1]+0.269*[#   2]
    |psi|^2 = 0.976
==== e(   2) =    -8.28863 eV ==== 
     psi = 0.491*[#   3]+0.491*[#   4]
    |psi|^2 = 0.982
==== e(   3) =    -8.28863 eV ==== 
     psi = 0.491*[#   3]+0.491*[#   4]
    |psi|^2 = 0.982
==== e(   4) =     1.60086 eV ==== 
     psi = 0.066*[#   2]+0.001*[#   1]
    |psi|^2 = 0.067
==== e(   5) =     1.84735 eV ==== 
     psi = 0.003*[#   3]+0.003*[#   4]
    |psi|^2 = 0.005
==== e(   6) =     1.84735 eV ==== 
     psi = 0.003*[#   3]+0.003*[#   4]
    |psi|^2 = 0.005

 k =  -0.5000000000 -0.5000000000  1.1051242208
==== e(   1) =   -19.66367 eV ==== 
     psi = 0.670*[#   1]+0.306*[#   2]
    |psi|^2 = 0.976
==== e(   2) =    -8.00226 eV ==== 
     psi = 0.492*[#   3]+0.492*[#   4]
    |psi|^2 = 0.985
==== e(   3) =    -8.00226 eV ==== 
     psi = 0.492*[#   3]+0.492*[#   4]
    |psi|^2 = 0.985
==== e(   4) =     1.88309 eV ==== 
     psi = 0.060*[#   2]+0.001*[#   1]
    |psi|^2 = 0.061
==== e(   5) =     2.15213 eV ==== 
     psi = 0.002*[#   3]+0.002*[#   4]
    |psi|^2 = 0.004
==== e(   6) =     2.15213 eV ==== 
     psi = 0.002*[#   3]+0.002*[#   4]
    |psi|^2 = 0.004

 k =  -0.5000000000 -0.5000000000  1.2012219791
==== e(   1) =   -19.48528 eV ==== 
     psi = 0.634*[#   1]+0.341*[#   2]
    |psi|^2 = 0.975
==== e(   2) =    -7.69039 eV ==== 
     psi = 0.494*[#   3]+0.494*[#   4]
    |psi|^2 = 0.988
==== e(   3) =    -7.69039 eV ==== 
     psi = 0.494*[#   3]+0.494*[#   4]
    |psi|^2 = 0.988
==== e(   4) =     2.18936 eV ==== 
     psi = 0.052*[#   2]
    |psi|^2 = 0.053
==== e(   5) =     2.48459 eV ==== 
     psi = 0.002*[#   3]+0.002*[#   4]
    |psi|^2 = 0.003
==== e(   6) =     2.48460 eV ==== 
     psi = 0.002*[#   3]+0.002*[#   4]
    |psi|^2 = 0.003

 k =  -0.5000000000 -0.5000000000  1.2973197374
==== e(   1) =   -19.29410 eV ==== 
     psi = 0.598*[#   1]+0.377*[#   2]
    |psi|^2 = 0.975
==== e(   2) =    -7.35320 eV ==== 
     psi = 0.495*[#   3]+0.495*[#   4]
    |psi|^2 = 0.990
==== e(   3) =    -7.35320 eV ==== 
     psi = 0.495*[#   3]+0.495*[#   4]
    |psi|^2 = 0.990
==== e(   4) =     2.51901 eV ==== 
     psi = 0.044*[#   2]
    |psi|^2 = 0.044
==== e(   5) =     2.84472 eV ==== 
     psi = 0.001*[#   3]+0.001*[#   4]
    |psi|^2 = 0.003
==== e(   6) =     2.84472 eV ==== 
     psi = 0.001*[#   3]+0.001*[#   4]
    |psi|^2 = 0.003

 k =  -0.5000000000 -0.5000000000  1.3934174958
==== e(   1) =   -19.09067 eV ==== 
     psi = 0.563*[#   1]+0.411*[#   2]
    |psi|^2 = 0.975
==== e(   2) =    -6.99086 eV ==== 
     psi = 0.496*[#   3]+0.496*[#   4]
    |psi|^2 = 0.992
==== e(   3) =    -6.99086 eV ==== 
     psi = 0.496*[#   3]+0.496*[#   4]
    |psi|^2 = 0.992
==== e(   4) =     2.87113 eV ==== 
     psi = 0.034*[#   2]
    |psi|^2 = 0.034
==== e(   5) =     3.23251 eV ==== 

    |psi|^2 = 0.002
==== e(   6) =     3.23251 eV ==== 

    |psi|^2 = 0.002

 k =  -0.5000000000 -0.5000000000  1.4895152541
==== e(   1) =   -18.87561 eV ==== 
     psi = 0.529*[#   1]+0.446*[#   2]
    |psi|^2 = 0.975
==== e(   2) =    -6.60362 eV ==== 
     psi = 0.497*[#   3]+0.497*[#   4]
    |psi|^2 = 0.994
==== e(   3) =    -6.60362 eV ==== 
     psi = 0.497*[#   3]+0.497*[#   4]
    |psi|^2 = 0.994
==== e(   4) =     3.24449 eV ==== 
     psi = 0.025*[#   2]
    |psi|^2 = 0.025
==== e(   5) =     3.64795 eV ==== 

    |psi|^2 = 0.001
==== e(   6) =     3.64795 eV ==== 

    |psi|^2 = 0.001

 k =  -0.5000000000 -0.5000000000  1.5856130124
==== e(   1) =   -18.64958 eV ==== 
     psi = 0.496*[#   1]+0.479*[#   2]
    |psi|^2 = 0.975
==== e(   2) =    -6.19172 eV ==== 
     psi = 0.498*[#   3]+0.498*[#   4]
    |psi|^2 = 0.995
==== e(   3) =    -6.19172 eV ==== 
     psi = 0.498*[#   3]+0.498*[#   4]
    |psi|^2 = 0.995
==== e(   4) =     3.63738 eV ==== 
     psi = 0.017*[#   2]+0.002*[#   1]
    |psi|^2 = 0.018
==== e(   5) =     4.09102 eV ==== 

    |psi|^2 = 0.001
==== e(   6) =     4.09102 eV ==== 

    |psi|^2 = 0.001

 k =  -0.5000000000 -0.5000000000  1.6817107707
==== e(   1) =   -18.41330 eV ==== 
     psi = 0.511*[#   2]+0.465*[#   1]
    |psi|^2 = 0.976
==== e(   2) =    -5.75546 eV ==== 
     psi = 0.498*[#   3]+0.498*[#   4]
    |psi|^2 = 0.996
==== e(   3) =    -5.75546 eV ==== 
     psi = 0.498*[#   3]+0.498*[#   4]
    |psi|^2 = 0.996
==== e(   4) =     4.04740 eV ==== 
     psi = 0.010*[#   2]+0.005*[#   1]
    |psi|^2 = 0.015
==== e(   5) =     4.56170 eV ==== 

    |psi|^2 = 0.000
==== e(   6) =     4.56170 eV ==== 

    |psi|^2 = 0.000

 k =  -0.5000000000 -0.5000000000  1.7778085291
==== e(   1) =   -18.16763 eV ==== 
     psi = 0.543*[#   2]+0.434*[#   1]
    |psi|^2 = 0.977
==== e(   2) =    -5.29524 eV ==== 
     psi = 0.498*[#   3]+0.498*[#   4]
    |psi|^2 = 0.996
==== e(   3) =    -5.29524 eV ==== 
     psi = 0.498*[#   3]+0.498*[#   4]
    |psi|^2 = 0.996
==== e(   4) =     4.47102 eV ==== 
     psi = 0.011*[#   1]+0.004*[#   2]
    |psi|^2 = 0.015
==== e(   5) =     5.05998 eV ==== 

    |psi|^2 = 0.000
==== e(   6) =     5.05998 eV ==== 

    |psi|^2 = 0.000

 k =  -0.5000000000 -0.5000000000  1.8739062874
==== e(   1) =   -17.91342 eV ==== 
     psi = 0.573*[#   2]+0.405*[#   1]
    |psi|^2 = 0.978
==== e(   2) =    -4.81143 eV ==== 
     psi = 0.498*[#   3]+0.498*[#   4]
    |psi|^2 = 0.996
==== e(   3) =    -4.81143 eV ==== 
     psi = 0.498*[#   3]+0.498*[#   4]
    |psi|^2 = 0.996
==== e(   4) =     4.90302 eV ==== 
     psi = 0.021*[#   1]
    |psi|^2 = 0.022
==== e(   5) =     5.58582 eV ==== 

    |psi|^2 = 0.000
==== e(   6) =     5.58582 eV ==== 

    |psi|^2 = 0.000

 k =  -0.5000000000 -0.5000000000  1.9700040457
==== e(   1) =   -17.65168 eV ==== 
     psi = 0.603*[#   2]+0.376*[#   1]
    |psi|^2 = 0.979
==== e(   2) =    -4.30454 eV ==== 
     psi = 0.498*[#   3]+0.498*[#   4]
    |psi|^2 = 0.995
==== e(   3) =    -4.30454 eV ==== 
     psi = 0.498*[#   3]+0.498*[#   4]
    |psi|^2 = 0.995
==== e(   4) =     5.33545 eV ==== 
     psi = 0.038*[#   1]
    |psi|^2 = 0.038
==== e(   5) =     6.13920 eV ==== 

    |psi|^2 = 0.000
==== e(   6) =     6.13920 eV ==== 

    |psi|^2 = 0.000

 k =  -0.5000000000 -0.5000000000  2.0661018040
==== e(   1) =   -17.38352 eV ==== 
     psi = 0.631*[#   2]+0.349*[#   1]
    |psi|^2 = 0.980
==== e(   2) =    -3.77518 eV ==== 
     psi = 0.497*[#   3]+0.497*[#   4]
    |psi|^2 = 0.994
==== e(   3) =    -3.77518 eV ==== 
     psi = 0.497*[#   3]+0.497*[#   4]
    |psi|^2 = 0.994
==== e(   4) =     5.75602 eV ==== 
     psi = 0.064*[#   1]+0.003*[#   2]
    |psi|^2 = 0.067
==== e(   5) =     6.72007 eV ==== 

    |psi|^2 = 0.000
==== e(   6) =     6.72007 eV ==== 

    |psi|^2 = 0.000

 k =  -0.5000000000 -0.5000000000  2.1621995624
==== e(   1) =   -17.11011 eV ==== 
     psi = 0.659*[#   2]+0.322*[#   1]
    |psi|^2 = 0.981
==== e(   2) =    -3.22403 eV ==== 
     psi = 0.496*[#   3]+0.496*[#   4]
    |psi|^2 = 0.992
==== e(   3) =    -3.22403 eV ==== 
     psi = 0.496*[#   3]+0.496*[#   4]
    |psi|^2 = 0.992
==== e(   4) =     6.14610 eV ==== 
     psi = 0.105*[#   1]+0.009*[#   2]
    |psi|^2 = 0.115
==== e(   5) =     7.32837 eV ==== 

    |psi|^2 = 0.000
==== e(   6) =     7.32838 eV ==== 

    |psi|^2 = 0.000

 k =  -0.5000000000 -0.5000000000  2.2582973207
==== e(   1) =   -16.83276 eV ==== 
     psi = 0.686*[#   2]+0.296*[#   1]
    |psi|^2 = 0.982
==== e(   2) =    -2.65192 eV ==== 
     psi = 0.495*[#   3]+0.495*[#   4]
    |psi|^2 = 0.989
==== e(   3) =    -2.65192 eV ==== 
     psi = 0.495*[#   3]+0.495*[#   4]
    |psi|^2 = 0.989
==== e(   4) =     6.47891 eV ==== 
     psi = 0.167*[#   1]+0.022*[#   2]
    |psi|^2 = 0.189
==== e(   5) =     7.96406 eV ==== 

    |psi|^2 = 0.000
==== e(   6) =     7.96406 eV ==== 

    |psi|^2 = 0.000

 k =  -0.5000000000 -0.5000000000  2.3543950790
==== e(   1) =   -16.55295 eV ==== 
     psi = 0.712*[#   2]+0.271*[#   1]
    |psi|^2 = 0.983
==== e(   2) =    -2.05989 eV ==== 
     psi = 0.493*[#   3]+0.493*[#   4]
    |psi|^2 = 0.986
==== e(   3) =    -2.05989 eV ==== 
     psi = 0.493*[#   3]+0.493*[#   4]
    |psi|^2 = 0.986
==== e(   4) =     6.72161 eV ==== 
     psi = 0.252*[#   1]+0.040*[#   2]
    |psi|^2 = 0.292
==== e(   5) =     8.62703 eV ==== 

    |psi|^2 = 0.001
==== e(   6) =     8.62703 eV ==== 

    |psi|^2 = 0.001

 k =  -0.5000000000 -0.5000000000  2.4504928374
==== e(   1) =   -16.27225 eV ==== 
     psi = 0.737*[#   2]+0.247*[#   1]
    |psi|^2 = 0.984
==== e(   2) =    -1.44916 eV ==== 
     psi = 0.491*[#   3]+0.491*[#   4]
    |psi|^2 = 0.983
==== e(   3) =    -1.44916 eV ==== 
     psi = 0.491*[#   3]+0.491*[#   4]
    |psi|^2 = 0.983
==== e(   4) =     6.84572 eV ==== 
     psi = 0.355*[#   1]+0.062*[#   2]
    |psi|^2 = 0.417
==== e(   5) =     9.31718 eV ==== 

    |psi|^2 = 0.001
==== e(   6) =     9.31718 eV ==== 

    |psi|^2 = 0.001

 k =  -0.5000000000 -0.5000000000  2.5465905957
==== e(   1) =   -15.99241 eV ==== 
     psi = 0.762*[#   2]+0.223*[#   1]
    |psi|^2 = 0.985
==== e(   2) =    -0.82125 eV ==== 
     psi = 0.489*[#   3]+0.489*[#   4]
    |psi|^2 = 0.979
==== e(   3) =    -0.82125 eV ==== 
     psi = 0.489*[#   3]+0.489*[#   4]
    |psi|^2 = 0.979
==== e(   4) =     6.84227 eV ==== 
     psi = 0.462*[#   1]+0.081*[#   2]
    |psi|^2 = 0.543
==== e(   5) =    10.03434 eV ==== 

    |psi|^2 = 0.001
==== e(   6) =    10.03434 eV ==== 

    |psi|^2 = 0.001

 k =  -0.5000000000 -0.5000000000  2.6426883540
==== e(   1) =   -15.71534 eV ==== 
     psi = 0.786*[#   2]+0.200*[#   1]
    |psi|^2 = 0.985
==== e(   2) =    -0.17804 eV ==== 
     psi = 0.487*[#   3]+0.487*[#   4]
    |psi|^2 = 0.975
==== e(   3) =    -0.17804 eV ==== 
     psi = 0.487*[#   3]+0.487*[#   4]
    |psi|^2 = 0.975
==== e(   4) =     6.72661 eV ==== 
     psi = 0.558*[#   1]+0.094*[#   2]
    |psi|^2 = 0.651
==== e(   5) =    10.77830 eV ==== 

    |psi|^2 = 0.002
==== e(   6) =    10.77830 eV ==== 

    |psi|^2 = 0.002

 k =  -0.5000000000 -0.5000000000  2.7387861123
==== e(   1) =   -15.44311 eV ==== 
     psi = 0.809*[#   2]+0.177*[#   1]
    |psi|^2 = 0.986
==== e(   2) =     0.47811 eV ==== 
     psi = 0.485*[#   3]+0.485*[#   4]
    |psi|^2 = 0.970
==== e(   3) =     0.47811 eV ==== 
     psi = 0.485*[#   3]+0.485*[#   4]
    |psi|^2 = 0.970
==== e(   4) =     6.52758 eV ==== 
     psi = 0.638*[#   1]+0.099*[#   2]
    |psi|^2 = 0.737
==== e(   5) =    11.54874 eV ==== 

    |psi|^2 = 0.002
==== e(   6) =    11.54874 eV ==== 

    |psi|^2 = 0.002

 k =  -0.5000000000 -0.5000000000  2.8348838707
==== e(   1) =   -15.17800 eV ==== 
     psi = 0.832*[#   2]+0.154*[#   1]
    |psi|^2 = 0.986
==== e(   2) =     1.14419 eV ==== 
     psi = 0.483*[#   3]+0.483*[#   4]
    |psi|^2 = 0.966
==== e(   3) =     1.14419 eV ==== 
     psi = 0.483*[#   3]+0.483*[#   4]
    |psi|^2 = 0.966
==== e(   4) =     6.27473 eV ==== 
     psi = 0.704*[#   1]+0.097*[#   2]
    |psi|^2 = 0.801
==== e(   5) =    12.34518 eV ==== 
     psi = 0.001*[#   3]+0.001*[#   4]
    |psi|^2 = 0.002
==== e(   6) =    12.34519 eV ==== 
     psi = 0.001*[#   3]+0.001*[#   4]
    |psi|^2 = 0.002

 k =  -0.5000000000 -0.5000000000  2.9309816290
==== e(   1) =   -14.92239 eV ==== 
     psi = 0.854*[#   2]+0.133*[#   1]
    |psi|^2 = 0.987
==== e(   2) =     1.81644 eV ==== 
     psi = 0.481*[#   3]+0.481*[#   4]
    |psi|^2 = 0.962
==== e(   3) =     1.81644 eV ==== 
     psi = 0.481*[#   3]+0.481*[#   4]
    |psi|^2 = 0.962
==== e(   4) =     5.99240 eV ==== 
     psi = 0.757*[#   1]+0.091*[#   2]
    |psi|^2 = 0.848
==== e(   5) =    13.16688 eV ==== 
     psi = 0.001*[#   3]+0.001*[#   4]
    |psi|^2 = 0.003
==== e(   6) =    13.16688 eV ==== 
     psi = 0.001*[#   3]+0.001*[#   4]
    |psi|^2 = 0.003

 k =  -0.5000000000 -0.5000000000  3.0270793873
==== e(   1) =   -14.67893 eV ==== 
     psi = 0.876*[#   2]+0.112*[#   1]
    |psi|^2 = 0.987
==== e(   2) =     2.48990 eV ==== 
     psi = 0.480*[#   3]+0.480*[#   4]
    |psi|^2 = 0.959
==== e(   3) =     2.48990 eV ==== 
     psi = 0.480*[#   3]+0.480*[#   4]
    |psi|^2 = 0.959
==== e(   4) =     5.69914 eV ==== 
     psi = 0.802*[#   1]+0.082*[#   2]
    |psi|^2 = 0.883
==== e(   5) =    14.01253 eV ==== 
     psi = 0.002*[#   3]+0.002*[#   4]
    |psi|^2 = 0.003
==== e(   6) =    14.01253 eV ==== 
     psi = 0.002*[#   3]+0.002*[#   4]
    |psi|^2 = 0.003

 k =  -0.5000000000 -0.5000000000  3.1231771456
==== e(   1) =   -14.45031 eV ==== 
     psi = 0.896*[#   2]+0.091*[#   1]
    |psi|^2 = 0.988
==== e(   2) =     3.15822 eV ==== 
     psi = 0.479*[#   3]+0.479*[#   4]
    |psi|^2 = 0.957
==== e(   3) =     3.15822 eV ==== 
     psi = 0.479*[#   3]+0.479*[#   4]
    |psi|^2 = 0.957
==== e(   4) =     5.40882 eV ==== 
     psi = 0.840*[#   1]+0.070*[#   2]
    |psi|^2 = 0.910
==== e(   5) =    14.87982 eV ==== 
     psi = 0.002*[#   3]+0.002*[#   4]
    |psi|^2 = 0.004
==== e(   6) =    14.87982 eV ==== 
     psi = 0.002*[#   3]+0.002*[#   4]
    |psi|^2 = 0.004

 k =  -0.5000000000 -0.5000000000  3.2192749040
==== e(   1) =   -14.23937 eV ==== 
     psi = 0.915*[#   2]+0.072*[#   1]
    |psi|^2 = 0.988
==== e(   2) =     3.81304 eV ==== 
     psi = 0.478*[#   3]+0.478*[#   4]
    |psi|^2 = 0.957
==== e(   3) =     3.81304 eV ==== 
     psi = 0.478*[#   3]+0.478*[#   4]
    |psi|^2 = 0.957
==== e(   4) =     5.13201 eV ==== 
     psi = 0.872*[#   1]+0.057*[#   2]
    |psi|^2 = 0.929
==== e(   5) =    15.76394 eV ==== 
     psi = 0.002*[#   3]+0.002*[#   4]
    |psi|^2 = 0.005
==== e(   6) =    15.76394 eV ==== 
     psi = 0.002*[#   3]+0.002*[#   4]
    |psi|^2 = 0.005

 k =  -0.5000000000 -0.5000000000  3.3153726623
==== e(   1) =   -14.04894 eV ==== 
     psi = 0.933*[#   2]+0.055*[#   1]
    |psi|^2 = 0.988
==== e(   2) =     4.44348 eV ==== 
     psi = 0.479*[#   3]+0.479*[#   4]
    |psi|^2 = 0.958
==== e(   3) =     4.44348 eV ==== 
     psi = 0.479*[#   3]+0.479*[#   4]
    |psi|^2 = 0.958
==== e(   4) =     4.87706 eV ==== 
     psi = 0.899*[#   1]+0.045*[#   2]
    |psi|^2 = 0.944
==== e(   5) =    16.65356 eV ==== 
     psi = 0.003*[#   3]+0.003*[#   4]
    |psi|^2 = 0.006
==== e(   6) =    16.65356 eV ==== 
     psi = 0.003*[#   3]+0.003*[#   4]
    |psi|^2 = 0.006

 k =  -0.5000000000 -0.5000000000  3.4114704206
==== e(   1) =   -13.88188 eV ==== 
     psi = 0.949*[#   2]+0.039*[#   1]
    |psi|^2 = 0.988
==== e(   2) =     4.65062 eV ==== 
     psi = 0.922*[#   1]+0.033*[#   2]
    |psi|^2 = 0.955
==== e(   3) =     5.03529 eV ==== 
     psi = 0.481*[#   3]+0.481*[#   4]
    |psi|^2 = 0.962
==== e(   4) =     5.03529 eV ==== 
     psi = 0.481*[#   3]+0.481*[#   4]
    |psi|^2 = 0.962
==== e(   5) =    17.51570 eV ==== 
     psi = 0.005*[#   3]+0.005*[#   4]
    |psi|^2 = 0.009
==== e(   6) =    17.51571 eV ==== 
     psi = 0.005*[#   3]+0.005*[#   4]
    |psi|^2 = 0.009

 k =  -0.5000000000 -0.5000000000  3.5075681790
==== e(   1) =   -13.74088 eV ==== 
     psi = 0.963*[#   2]+0.026*[#   1]
    |psi|^2 = 0.989
==== e(   2) =     4.45813 eV ==== 
     psi = 0.941*[#   1]+0.022*[#   2]
    |psi|^2 = 0.963
==== e(   3) =     5.57037 eV ==== 
     psi = 0.484*[#   3]+0.484*[#   4]
    |psi|^2 = 0.967
==== e(   4) =     5.57037 eV ==== 
     psi = 0.484*[#   3]+0.484*[#   4]
    |psi|^2 = 0.967
==== e(   5) =    18.23597 eV ==== 
     psi = 0.007*[#   3]+0.007*[#   4]
    |psi|^2 = 0.015
==== e(   6) =    18.23597 eV ==== 
     psi = 0.007*[#   3]+0.007*[#   4]
    |psi|^2 = 0.015

 k =  -0.5000000000 -0.5000000000  3.6036659373
==== e(   1) =   -13.62835 eV ==== 
     psi = 0.974*[#   2]+0.015*[#   1]
    |psi|^2 = 0.989
==== e(   2) =     4.30397 eV ==== 
     psi = 0.956*[#   1]+0.013*[#   2]
    |psi|^2 = 0.968
==== e(   3) =     6.02663 eV ==== 
     psi = 0.487*[#   3]+0.487*[#   4]
    |psi|^2 = 0.974
==== e(   4) =     6.02663 eV ==== 
     psi = 0.487*[#   3]+0.487*[#   4]
    |psi|^2 = 0.974
==== e(   5) =    18.56195 eV ==== 
     psi = 0.008*[#   3]+0.008*[#   4]
    |psi|^2 = 0.016
==== e(   6) =    18.56195 eV ==== 
     psi = 0.008*[#   3]+0.008*[#   4]
    |psi|^2 = 0.016

 k =  -0.5000000000 -0.5000000000  3.6997636956
==== e(   1) =   -13.54639 eV ==== 
     psi = 0.982*[#   2]+0.007*[#   1]
    |psi|^2 = 0.989
==== e(   2) =     4.19137 eV ==== 
     psi = 0.967*[#   1]+0.006*[#   2]
    |psi|^2 = 0.972
==== e(   3) =     6.37908 eV ==== 
     psi = 0.491*[#   3]+0.491*[#   4]
    |psi|^2 = 0.982
==== e(   4) =     6.37908 eV ==== 
     psi = 0.491*[#   3]+0.491*[#   4]
    |psi|^2 = 0.982
==== e(   5) =    18.53478 eV ==== 
     psi = 0.005*[#   3]+0.005*[#   4]
    |psi|^2 = 0.010
==== e(   6) =    18.53478 eV ==== 
     psi = 0.005*[#   3]+0.005*[#   4]
    |psi|^2 = 0.010

 k =  -0.5000000000 -0.5000000000  3.7958614539
==== e(   1) =   -13.49654 eV ==== 
     psi = 0.987*[#   2]+0.002*[#   1]
    |psi|^2 = 0.989
==== e(   2) =     4.12285 eV ==== 
     psi = 0.973*[#   1]+0.001*[#   2]
    |psi|^2 = 0.975
==== e(   3) =     6.60319 eV ==== 
     psi = 0.494*[#   3]+0.494*[#   4]
    |psi|^2 = 0.988
==== e(   4) =     6.60319 eV ==== 
     psi = 0.494*[#   3]+0.494*[#   4]
    |psi|^2 = 0.988
==== e(   5) =    18.43281 eV ==== 
     psi = 0.001*[#   3]+0.001*[#   4]
    |psi|^2 = 0.003
==== e(   6) =    18.43281 eV ==== 
     psi = 0.001*[#   3]+0.001*[#   4]
    |psi|^2 = 0.003

 k =  -0.5000000000 -0.5000000000 -3.8919592123
==== e(   1) =   -13.47981 eV ==== 
     psi = 0.989*[#   2]
    |psi|^2 = 0.989
==== e(   2) =     4.09986 eV ==== 
     psi = 0.975*[#   1]
    |psi|^2 = 0.975
==== e(   3) =     6.68026 eV ==== 
     psi = 0.495*[#   3]+0.495*[#   4]
    |psi|^2 = 0.990
==== e(   4) =     6.68026 eV ==== 
     psi = 0.495*[#   3]+0.495*[#   4]
    |psi|^2 = 0.990
==== e(   5) =    18.38778 eV ==== 

    |psi|^2 = 0.000
==== e(   6) =    18.38778 eV ==== 

    |psi|^2 = 0.000

Lowdin Charges: 

     Atom #   1: total charge =   3.9229, s =  0.8647, 
     Atom #   1: total charge =   3.9229, p =  3.0582, pz=  1.0990, px=  0.9796, py=  0.9796, 
     Spilling Parameter:   0.0193

     PROJWFC      :      0.70s CPU      0.71s WALL


   This run was terminated on:  23:17:12  15May2023            

=------------------------------------------------------------------------------=
   JOB DONE.
=------------------------------------------------------------------------------=
