
     Program BANDS v.7.2 starts on 15May2023 at 23:46:51 

     This program is part of the open-source Quantum ESPRESSO suite
     for quantum simulation of materials; please cite
         "P. Giannozzi et al., J. Phys.:Condens. Matter 21 395502 (2009);
         "P. Giannozzi et al., J. Phys.:Condens. Matter 29 465901 (2017);
         "P. Giannozzi et al., J. Chem. Phys. 152 154105 (2020);
          URL http://www.quantum-espresso.org", 
     in publications or presentations arising from this work. More details at
     http://www.quantum-espresso.org/quote

     Parallel version (MPI), running on     1 processors

     MPI processes distributed on     1 nodes
     170 MiB available memory on the printing compute node when the environment starts


     Reading xml data from directory:

     ./outdir/1c_dos.save/
     file C.pbe-n-kjpaw_psl.1.0.0.UPF: wavefunction(s)  2S 2P renormalized

     IMPORTANT: XC functional enforced from input :
     Exchange-correlation= PBE
                           (   1   4   3   4   0   0   0)
     Any further DFT definition will be discarded
     Please, verify this is what you really want


     G-vector sticks info
     --------------------
     sticks:   dense  smooth     PW     G-vecs:    dense   smooth      PW
     Sum        5129    5129   1813                35379    35379    7347

     Using Slab Decomposition


     Check: negative core charge=   -0.000012

     negative rho (up, down):  7.634E-04 0.000E+00
     Reading collected, re-writing distributed wavefunctions
     high-symmetry point:  0.0000 0.0000 0.0000   x coordinate   0.0000
     high-symmetry point:  0.0000 0.0000 3.8920   x coordinate   3.8920

     Plottable bands (eV) written to file 5_c.bands_pp.dat.gnu
     Bands written to file 5_c.bands_pp.dat

 **************************************************************************

                    xk=(   0.00000,   0.00000,   0.00000  )

     point group D_4h(4/mmm)
     there are 10 classes
     the character table:

       E     2C4   C2    2C2'  2C2'' i     2S4   s_h   2s_v  2s_d 
A_1g   1.00  1.00  1.00  1.00  1.00  1.00  1.00  1.00  1.00  1.00
A_2g   1.00  1.00  1.00 -1.00 -1.00  1.00  1.00  1.00 -1.00 -1.00
B_1g   1.00 -1.00  1.00  1.00 -1.00  1.00 -1.00  1.00  1.00 -1.00
B_2g   1.00 -1.00  1.00 -1.00  1.00  1.00 -1.00  1.00 -1.00  1.00
E_g    2.00  0.00 -2.00  0.00  0.00  2.00  0.00 -2.00  0.00  0.00
A_1u   1.00  1.00  1.00  1.00  1.00 -1.00 -1.00 -1.00 -1.00 -1.00
A_2u   1.00  1.00  1.00 -1.00 -1.00 -1.00 -1.00 -1.00  1.00  1.00
B_1u   1.00 -1.00  1.00  1.00 -1.00 -1.00  1.00 -1.00 -1.00  1.00
B_2u   1.00 -1.00  1.00 -1.00  1.00 -1.00  1.00 -1.00  1.00 -1.00
E_u    2.00  0.00 -2.00  0.00  0.00 -2.00  0.00  2.00  0.00  0.00

     the symmetry operations in each class and the name of the first element:

     E        1
                                                                 
     2C4      7    8
                                                                 
     C2       2
                                                                 
     2C2'     3    4
                                                                 
     2C2''    5    6
                                                                 
     i        9
                                                                 
     2S4     15   16
                                                                 
     s_h     10
                                                                 
     2s_v    11   12
                                                                 
     2s_d    13   14
                                                                 

     Band symmetry, D_4h(4/mmm) point group:

     e(  1 -  1) =    -20.67870  eV     1   --> A_1g X_1  M_1  
     e(  2 -  3) =     -9.73023  eV     2   --> E_u  X_5' M_5' 
     e(  4 -  4) =     -0.50876  eV     1   --> A_1g X_1  M_1  
     e(  5 -  5) =      0.97717  eV     1   --> B_1g X_2  M_2  
     e(  6 -  7) =      1.03481  eV     2   --> E_u  X_5' M_5' 
     e(  8 -  8) =      1.23734  eV     1   --> A_1g X_1  M_1  

 **************************************************************************

 **************************************************************************

                    xk=(   0.00000,   0.00000,   0.19460  )

     point group C_4v (4mm) 
     there are  5 classes
     the character table:

       E     2C4   C2    2s_v  2s_d 
A_1    1.00  1.00  1.00  1.00  1.00
A_2    1.00  1.00  1.00 -1.00 -1.00
B_1    1.00 -1.00  1.00  1.00 -1.00
B_2    1.00 -1.00  1.00 -1.00  1.00
E      2.00  0.00 -2.00  0.00  0.00

     the symmetry operations in each class and the name of the first element:

     E        1
                                                                 
     2C4      3    4
                                                                 
     C2       2
                                                                 
     2s_v     5    6
                                                                 
     2s_d     7    8
                                                                 

     Band symmetry, C_4v (4mm)  point group:

     e(  1 -  1) =    -20.64644  eV     1   --> A_1  G_1 D_1   
     e(  2 -  3) =     -9.67643  eV     2   --> E    G_5 D_5   
     e(  4 -  4) =     -0.45316  eV     1   --> A_1  G_1 D_1   
     e(  5 -  5) =      1.03413  eV     1   --> B_1  G_3 D_2   
     e(  6 -  7) =      1.09156  eV     2   --> E    G_5 D_5   
     e(  8 -  8) =      1.29202  eV     1   --> A_1  G_1 D_1   

 **************************************************************************

 **************************************************************************

                    xk=(   0.00000,   0.00000,   0.38920  )

     Band symmetry, C_4v (4mm)  point group:

     e(  1 -  1) =    -20.54997  eV     1   --> A_1  G_1 D_1   
     e(  2 -  3) =     -9.51511  eV     2   --> E    G_5 D_5   
     e(  4 -  4) =     -0.28643  eV     1   --> A_1  G_1 D_1   
     e(  5 -  5) =      1.20501  eV     1   --> B_1  G_3 D_2   
     e(  6 -  7) =      1.26179  eV     2   --> E    G_5 D_5   
     e(  8 -  8) =      1.45594  eV     1   --> A_1  G_1 D_1   

 **************************************************************************

 **************************************************************************

                    xk=(   0.00000,   0.00000,   0.58379  )

     Band symmetry, C_4v (4mm)  point group:

     e(  1 -  1) =    -20.39014  eV     1   --> A_1  G_1 D_1   
     e(  2 -  3) =     -9.24650  eV     2   --> E    G_5 D_5   
     e(  4 -  4) =     -0.00883  eV     1   --> A_1  G_1 D_1   
     e(  5 -  5) =      1.48980  eV     1   --> B_1  G_3 D_2   
     e(  6 -  7) =      1.54549  eV     2   --> E    G_5 D_5   
     e(  8 -  8) =      1.72871  eV     1   --> A_1  G_1 D_1   

 **************************************************************************

 **************************************************************************

                    xk=(   0.00000,   0.00000,   0.77839  )

     Band symmetry, C_4v (4mm)  point group:

     e(  1 -  1) =    -20.16852  eV     1   --> A_1  G_1 D_1   
     e(  2 -  3) =     -8.87105  eV     2   --> E    G_5 D_5   
     e(  4 -  4) =      0.37914  eV     1   --> A_1  G_1 D_1   
     e(  5 -  5) =      1.88851  eV     1   --> B_1  G_3 D_2   
     e(  6 -  7) =      1.94261  eV     2   --> E    G_5 D_5   
     e(  8 -  8) =      2.10961  eV     1   --> A_1  G_1 D_1   

 **************************************************************************

 **************************************************************************

                    xk=(   0.00000,   0.00000,   0.97299  )

     Band symmetry, C_4v (4mm)  point group:

     e(  1 -  1) =    -19.88724  eV     1   --> A_1  G_1 D_1   
     e(  2 -  3) =     -8.38939  eV     2   --> E    G_5 D_5   
     e(  4 -  4) =      0.87664  eV     1   --> A_1  G_1 D_1   
     e(  5 -  5) =      2.40113  eV     1   --> B_1  G_3 D_2   
     e(  6 -  7) =      2.45311  eV     2   --> E    G_5 D_5   
     e(  8 -  8) =      2.59740  eV     1   --> A_1  G_1 D_1   

 **************************************************************************

 **************************************************************************

                    xk=(   0.00000,   0.00000,   1.16759  )

     Band symmetry, C_4v (4mm)  point group:

     e(  1 -  1) =    -19.54920  eV     1   --> A_1  G_1 D_1   
     e(  2 -  3) =     -7.80241  eV     2   --> E    G_5 D_5   
     e(  4 -  4) =      1.48224  eV     1   --> A_1  G_1 D_1   
     e(  5 -  5) =      3.02767  eV     1   --> B_1  G_3 D_2   
     e(  6 -  7) =      3.07690  eV     2   --> E    G_5 D_5   
     e(  8 -  8) =      3.19009  eV     1   --> A_1  G_1 D_1   

 **************************************************************************

 **************************************************************************

                    xk=(   0.00000,   0.00000,   1.36219  )

     Band symmetry, C_4v (4mm)  point group:

     e(  1 -  1) =    -19.15807  eV     1   --> A_1  G_1 D_1   
     e(  2 -  3) =     -7.11132  eV     2   --> E    G_5 D_5   
     e(  4 -  4) =      2.19341  eV     1   --> A_1  G_1 D_1   
     e(  5 -  5) =      3.76813  eV     1   --> B_1  G_3 D_2   
     e(  6 -  7) =      3.81387  eV     2   --> E    G_5 D_5   
     e(  8 -  8) =      3.88425  eV     1   --> A_1  G_1 D_1   

 **************************************************************************

 **************************************************************************

                    xk=(   0.00000,   0.00000,   1.55678  )

     Band symmetry, C_4v (4mm)  point group:

     e(  1 -  1) =    -18.71846  eV     1   --> A_1  G_1 D_1   
     e(  2 -  3) =     -6.31781  eV     2   --> E    G_5 D_5   
     e(  4 -  4) =      3.00532  eV     1   --> A_1  G_1 D_1   
     e(  5 -  5) =      4.62250  eV     1   --> B_1  G_3 D_2   
     e(  6 -  7) =      4.66387  eV     2   --> E    G_5 D_5   
     e(  8 -  8) =      4.67385  eV     1   --> A_1  G_1 D_1   

 **************************************************************************

 **************************************************************************

                    xk=(   0.00000,   0.00000,   1.75138  )

     Band symmetry, C_4v (4mm)  point group:

     e(  1 -  1) =    -18.23606  eV     1   --> A_1  G_1 D_1   
     e(  2 -  3) =     -5.42413  eV     2   --> E    G_5 D_5   
     e(  4 -  4) =      3.90781  eV     1   --> A_1  G_1 D_1   
     e(  5 -  5) =      5.54767  eV     1   --> A_1  G_1 D_1   
     e(  6 -  6) =      5.59079  eV     1   --> B_1  G_3 D_2   
     e(  7 -  8) =      5.62665  eV     2   --> E    G_5 D_5   

 **************************************************************************

 **************************************************************************

                    xk=(   0.00000,   0.00000,   1.94598  )

     Band symmetry, C_4v (4mm)  point group:

     e(  1 -  1) =    -17.71776  eV     1   --> A_1  G_1 D_1   
     e(  2 -  3) =     -4.43337  eV     2   --> E    G_5 D_5   
     e(  4 -  4) =      4.87614  eV     1   --> A_1  G_1 D_1   
     e(  5 -  5) =      6.48425  eV     1   --> A_1  G_1 D_1   
     e(  6 -  6) =      6.67299  eV     1   --> B_1  G_3 D_2   
     e(  7 -  8) =      6.70187  eV     2   --> E    G_5 D_5   

 **************************************************************************

 **************************************************************************

                    xk=(   0.00000,   0.00000,   2.14058  )

     Band symmetry, C_4v (4mm)  point group:

     e(  1 -  1) =    -17.17202  eV     1   --> A_1  G_1 D_1   
     e(  2 -  3) =     -3.34989  eV     2   --> E    G_5 D_5   
     e(  4 -  4) =      5.84006  eV     1   --> A_1  G_1 D_1   
     e(  5 -  5) =      7.44917  eV     1   --> A_1  G_1 D_1   
     e(  6 -  6) =      7.86911  eV     1   --> B_1  G_3 D_2   
     e(  7 -  8) =      7.88902  eV     2   --> E    G_5 D_5   

 **************************************************************************

 **************************************************************************

                    xk=(   0.00000,   0.00000,   2.33518  )

     Band symmetry, C_4v (4mm)  point group:

     e(  1 -  1) =    -16.60904  eV     1   --> A_1  G_1 D_1   
     e(  2 -  3) =     -2.17981  eV     2   --> E    G_5 D_5   
     e(  4 -  4) =      6.59785  eV     1   --> A_1  G_1 D_1   
     e(  5 -  5) =      8.44015  eV     1   --> A_1  G_1 D_1   
     e(  6 -  6) =      9.17914  eV     1   --> B_1  G_3 D_2   
     e(  7 -  8) =      9.18722  eV     2   --> E    G_5 D_5   

 **************************************************************************

 **************************************************************************

                    xk=(   0.00000,   0.00000,   2.52977  )

     Band symmetry, C_4v (4mm)  point group:

     e(  1 -  1) =    -16.04123  eV     1   --> A_1  G_1 D_1   
     e(  2 -  3) =     -0.93227  eV     2   --> E    G_5 D_5   
     e(  4 -  4) =      6.83653  eV     1   --> A_1  G_1 D_1   
     e(  5 -  5) =      9.58059  eV     1   --> A_1  G_1 D_1   
     e(  6 -  7) =     10.59497  eV     2   --> E    G_5 D_5   
     e(  8 -  8) =     10.60309  eV     1   --> B_1  G_3 D_2   

 **************************************************************************

 **************************************************************************

                    xk=(   0.00000,   0.00000,   2.72437  )

     Band symmetry, C_4v (4mm)  point group:

     e(  1 -  1) =    -15.48354  eV     1   --> A_1  G_1 D_1   
     e(  2 -  3) =      0.37898  eV     2   --> E    G_5 D_5   
     e(  4 -  4) =      6.55965  eV     1   --> A_1  G_1 D_1   
     e(  5 -  5) =     10.94456  eV     1   --> A_1  G_1 D_1   
     e(  6 -  7) =     12.10937  eV     2   --> E    G_5 D_5   
     e(  8 -  8) =     12.14095  eV     1   --> B_1  G_3 D_2   

 **************************************************************************

 **************************************************************************

                    xk=(   0.00000,   0.00000,   2.91897  )

     Band symmetry, C_4v (4mm)  point group:

     e(  1 -  1) =    -14.95373  eV     1   --> A_1  G_1 D_1   
     e(  2 -  3) =      1.73223  eV     2   --> E    G_5 D_5   
     e(  4 -  4) =      6.02839  eV     1   --> A_1  G_1 D_1   
     e(  5 -  5) =     12.48856  eV     1   --> A_1  G_1 D_1   
     e(  6 -  7) =     13.72401  eV     2   --> E    G_5 D_5   
     e(  8 -  8) =     13.79273  eV     1   --> B_1  G_3 D_2   

 **************************************************************************

 **************************************************************************

                    xk=(   0.00000,   0.00000,   3.11357  )

     Band symmetry, C_4v (4mm)  point group:

     e(  1 -  1) =    -14.47239  eV     1   --> A_1  G_1 D_1   
     e(  2 -  3) =      3.09189  eV     2   --> E    G_5 D_5   
     e(  4 -  4) =      5.43735  eV     1   --> A_1  G_1 D_1   
     e(  5 -  5) =     14.17497  eV     1   --> A_1  G_1 D_1   
     e(  6 -  7) =     15.42127  eV     2   --> E    G_5 D_5   
     e(  8 -  8) =     15.55841  eV     1   --> B_1  G_3 D_2   

 **************************************************************************

 **************************************************************************

                    xk=(   0.00000,   0.00000,   3.30817  )

     Band symmetry, C_4v (4mm)  point group:

     e(  1 -  1) =    -14.06243  eV     1   --> A_1  G_1 D_1   
     e(  2 -  3) =      4.39736  eV     2   --> E    G_5 D_5   
     e(  4 -  4) =      4.89523  eV     1   --> A_1  G_1 D_1   
     e(  5 -  5) =     15.98453  eV     1   --> A_1  G_1 D_1   
     e(  6 -  7) =     17.13232  eV     2   --> E    G_5 D_5   
     e(  8 -  8) =     17.43800  eV     1   --> B_1  G_3 D_2   

 **************************************************************************

 **************************************************************************

                    xk=(   0.00000,   0.00000,   3.50276  )

     Band symmetry, C_4v (4mm)  point group:

     e(  1 -  1) =    -13.74727  eV     1   --> A_1  G_1 D_1   
     e(  2 -  2) =      4.46686  eV     1   --> A_1  G_1 D_1   
     e(  3 -  4) =      5.54529  eV     2   --> E    G_5 D_5   
     e(  5 -  5) =     17.90346  eV     1   --> A_1  G_1 D_1   
     e(  6 -  7) =     18.44758  eV     2   --> E    G_5 D_5   
     e(  8 -  8) =     19.43149  eV     1   --> B_1  G_3 D_2   

 **************************************************************************

 **************************************************************************

                    xk=(   0.00000,   0.00000,   3.69736  )

     Band symmetry, C_4v (4mm)  point group:

     e(  1 -  1) =    -13.54806  eV     1   --> A_1  G_1 D_1   
     e(  2 -  2) =      4.19364  eV     1   --> A_1  G_1 D_1   
     e(  3 -  4) =      6.37174  eV     2   --> E    G_5 D_5   
     e(  5 -  6) =     18.55074  eV     2   --> E    G_5 D_5   
     e(  7 -  7) =     19.90582  eV     1   --> A_1  G_1 D_1   
     e(  8 -  8) =     21.52527  eV     1   -->   ?

 **************************************************************************

 **************************************************************************

                    xk=(   0.00000,   0.00000,   3.89196  )

     point group D_4h(4/mmm)
     there are 10 classes
     the character table:

       E     2C4   C2    2C2'  2C2'' i     2S4   s_h   2s_v  2s_d 
A_1g   1.00  1.00  1.00  1.00  1.00  1.00  1.00  1.00  1.00  1.00
A_2g   1.00  1.00  1.00 -1.00 -1.00  1.00  1.00  1.00 -1.00 -1.00
B_1g   1.00 -1.00  1.00  1.00 -1.00  1.00 -1.00  1.00  1.00 -1.00
B_2g   1.00 -1.00  1.00 -1.00  1.00  1.00 -1.00  1.00 -1.00  1.00
E_g    2.00  0.00 -2.00  0.00  0.00  2.00  0.00 -2.00  0.00  0.00
A_1u   1.00  1.00  1.00  1.00  1.00 -1.00 -1.00 -1.00 -1.00 -1.00
A_2u   1.00  1.00  1.00 -1.00 -1.00 -1.00 -1.00 -1.00  1.00  1.00
B_1u   1.00 -1.00  1.00  1.00 -1.00 -1.00  1.00 -1.00 -1.00  1.00
B_2u   1.00 -1.00  1.00 -1.00  1.00 -1.00  1.00 -1.00  1.00 -1.00
E_u    2.00  0.00 -2.00  0.00  0.00 -2.00  0.00  2.00  0.00  0.00

     the symmetry operations in each class and the name of the first element:

     E        1
                                                                 
     2C4      7    8
                                                                 
     C2       2
                                                                 
     2C2'     3    4
                                                                 
     2C2''    5    6
                                                                 
     i        9
                                                                 
     2S4     15   16
                                                                 
     s_h     10
                                                                 
     2s_v    11   12
                                                                 
     2s_d    13   14
                                                                 

     Band symmetry, D_4h(4/mmm) point group:

     e(  1 -  1) =    -13.47982  eV     1   --> A_2u X_4' M_4' 
     e(  2 -  2) =      4.09984  eV     1   --> A_1g X_1  M_1  
     e(  3 -  4) =      6.68024  eV     2   --> E_u  X_5' M_5' 
     e(  5 -  6) =     18.38998  eV     2   --> E_g  X_5  M_5  
     e(  7 -  7) =     21.57672  eV     1   --> A_2u X_4' M_4' 
     e(  8 -  8) =     22.38730  eV     1   --> A_1g X_1  M_1  

 **************************************************************************

     BANDS        :      3.69s CPU      3.79s WALL


   This run was terminated on:  23:46:55  15May2023            

=------------------------------------------------------------------------------=
   JOB DONE.
=------------------------------------------------------------------------------=
