
     Program PWSCF v.7.2 starts on 27May2023 at 22:33: 0 

     This program is part of the open-source Quantum ESPRESSO suite
     for quantum simulation of materials; please cite
         "P. Giannozzi et al., J. Phys.:Condens. Matter 21 395502 (2009);
         "P. Giannozzi et al., J. Phys.:Condens. Matter 29 465901 (2017);
         "P. Giannozzi et al., J. Chem. Phys. 152 154105 (2020);
          URL http://www.quantum-espresso.org", 
     in publications or presentations arising from this work. More details at
     http://www.quantum-espresso.org/quote

     Parallel version (MPI), running on     1 processors

     MPI processes distributed on     1 nodes
     619 MiB available memory on the printing compute node when the environment starts

     Reading input from supercell.in

     Current dimensions of program PWSCF are:
     Max number of different atomic species (ntypx) = 10
     Max number of k-points (npk) =  40000
     Max angular momentum in pseudopotentials (lmaxx) =  4

     File ./outdir/b2n2.update deleted, as requested

     File ./outdir/b2n2.bfgs deleted, as requested

     gamma-point specific algorithms are used
     Found identity + (  0.0000 -0.5000  0.0000) symmetry
     This is a supercell, fractional translations are disabled
     Message from routine setup:
     using ibrav=0 with symmetry is DISCOURAGED, use correct ibrav instead

     Subspace diagonalization in iterative solution of the eigenvalue problem:
     a serial algorithm will be used


     G-vector sticks info
     --------------------
     sticks:   dense  smooth     PW     G-vecs:    dense   smooth      PW
     Sum        2081    2081    527               148991   148991   18655

     Using Slab Decomposition



     bravais-lattice index     =            0
     lattice parameter (alat)  =       8.6360  a.u.
     unit-cell volume          =    1541.9945 (a.u.)^3
     number of atoms/cell      =            8
     number of atomic types    =            2
     number of electrons       =        32.00
     number of Kohn-Sham states=           16
     kinetic-energy cutoff     =      80.0000  Ry
     charge density cutoff     =     320.0000  Ry
     scf convergence threshold =      1.0E-05
     mixing beta               =       0.7000
     number of iterations used =            8  plain     mixing
     energy convergence thresh.=      1.0E-04
     force convergence thresh. =      1.0E-03
     press convergence thresh. =      5.0E-01
     Exchange-correlation= PBE
                           (   1   4   3   4   0   0   0)
     nstep                     =           50


     celldm(1)=   8.636048  celldm(2)=   0.000000  celldm(3)=   0.000000
     celldm(4)=   0.000000  celldm(5)=   0.000000  celldm(6)=   0.000000

     crystal axes: (cart. coord. in units of alat)
               a(1) = (   1.000000   0.000000   0.000000 )  
               a(2) = (   0.000000   1.094092   0.000000 )  
               a(3) = (   0.000000   0.000000   2.188184 )  

     reciprocal axes: (cart. coord. in units 2 pi/alat)
               b(1) = (  1.000000  0.000000  0.000000 )  
               b(2) = (  0.000000  0.914000  0.000000 )  
               b(3) = (  0.000000  0.000000  0.457000 )  


     PseudoPot. # 1 for B  read from file:
     ../B_pbe_v1.01.uspp.F.UPF
     MD5 check sum: d081ebb89d0c768e112975f650467a00
     Pseudo is Ultrasoft + core correction, Zval =  3.0
     Generated by new atomic code, or converted to UPF format
     Using radial grid of  781 points,  4 beta functions with: 
                l(1) =   0
                l(2) =   0
                l(3) =   1
                l(4) =   1
     Q(r) pseudized with  8 coefficients,  rinner =    1.100   1.100   1.100


     PseudoPot. # 2 for N  read from file:
     ../N.oncvpsp.upf
     MD5 check sum: 563d65bfb082928f0c9eb97172f6c357
     Pseudo is Norm-conserving + core correction, Zval =  5.0
     Generated using ONCVPSP code by D. R. Hamann
     Using radial grid of 1058 points,  4 beta functions with: 
                l(1) =   0
                l(2) =   0
                l(3) =   1
                l(4) =   1

     atomic species   valence    mass     pseudopotential
        B              3.00    10.81100     B ( 1.00)
        N              5.00    14.00670     N ( 1.00)

      2 Sym. Ops. (no inversion) found



   Cartesian axes

     site n.     atom                  positions (alat units)
         1           B   tau(   1) = (   0.1859956   0.4093249   0.0000000  )
         2           B   tau(   2) = (   0.1859956   0.9563709   0.0000000  )
         3           B   tau(   3) = (   0.8161926   0.4093249   0.0000000  )
         4           B   tau(   4) = (   0.8161926   0.9563709   0.0000000  )
         5           N   tau(   5) = (   0.3435449   0.1367615   0.0000000  )
         6           N   tau(   6) = (   0.3435449   0.6838074   0.0000000  )
         7           N   tau(   7) = (   0.6586433   0.1367615   0.0000000  )
         8           N   tau(   8) = (   0.6586433   0.6838074   0.0000000  )

     number of k points=     1
                       cart. coord. in units 2pi/alat
        k(    1) = (   0.0000000   0.0000000   0.0000000), wk =   2.0000000

     Dense  grid:    74496 G-vectors     FFT dimensions: (  50,  54, 108)

     Estimated max dynamical RAM per process >     127.10 MB

     Check: negative core charge=   -0.000004

     Initial potential from superposition of free atoms

     starting charge      31.9988, renormalised to      32.0000

     negative rho (up, down):  6.116E-08 0.000E+00
     Starting wfcs are   32 randomized atomic wfcs

     total cpu time spent up to now is        5.7 secs

     Self-consistent Calculation

     iteration #  1     ecut=    80.00 Ry     beta= 0.70
     Davidson diagonalization with overlap
     ethr =  1.00E-02,  avg # of iterations =  2.0

     negative rho (up, down):  3.844E-07 0.000E+00

     total cpu time spent up to now is        6.5 secs

     total energy              =    -108.56208645 Ry
     estimated scf accuracy    <       1.24624419 Ry

     iteration #  2     ecut=    80.00 Ry     beta= 0.70
     Davidson diagonalization with overlap
     ethr =  3.89E-03,  avg # of iterations =  4.0

     negative rho (up, down):  2.851E-06 0.000E+00

     total cpu time spent up to now is        7.3 secs

     total energy              =    -108.81527861 Ry
     estimated scf accuracy    <       0.29231381 Ry

     iteration #  3     ecut=    80.00 Ry     beta= 0.70
     Davidson diagonalization with overlap
     ethr =  9.13E-04,  avg # of iterations =  3.0

     negative rho (up, down):  8.885E-06 0.000E+00

     total cpu time spent up to now is        8.0 secs

     total energy              =    -108.87613659 Ry
     estimated scf accuracy    <       0.00934470 Ry

     iteration #  4     ecut=    80.00 Ry     beta= 0.70
     Davidson diagonalization with overlap
     ethr =  2.92E-05,  avg # of iterations =  5.0

     negative rho (up, down):  1.244E-05 0.000E+00

     total cpu time spent up to now is        9.0 secs

     total energy              =    -108.87945848 Ry
     estimated scf accuracy    <       0.00514266 Ry

     iteration #  5     ecut=    80.00 Ry     beta= 0.70
     Davidson diagonalization with overlap
     ethr =  1.61E-05,  avg # of iterations =  2.0

     negative rho (up, down):  1.331E-05 0.000E+00

     total cpu time spent up to now is        9.7 secs

     total energy              =    -108.88061283 Ry
     estimated scf accuracy    <       0.00012107 Ry

     iteration #  6     ecut=    80.00 Ry     beta= 0.70
     Davidson diagonalization with overlap
     ethr =  3.78E-07,  avg # of iterations =  6.0

     negative rho (up, down):  1.333E-05 0.000E+00

     total cpu time spent up to now is       10.8 secs

     total energy              =    -108.88074469 Ry
     estimated scf accuracy    <       0.00016112 Ry

     iteration #  7     ecut=    80.00 Ry     beta= 0.70
     Davidson diagonalization with overlap
     ethr =  3.78E-07,  avg # of iterations =  2.0

     negative rho (up, down):  1.279E-05 0.000E+00

     total cpu time spent up to now is       11.5 secs

     End of self-consistent calculation

          k = 0.0000 0.0000 0.0000 (  9328 PWs)   bands (ev):

   -21.0501 -19.2912 -15.4334 -14.0042 -12.0435 -11.4128  -9.7110  -8.1429
    -7.4094  -6.4885  -4.9328  -4.4934  -3.6263  -3.0343  -2.6417   0.0139

     highest occupied level (ev):     0.0139

!    total energy              =    -108.88077084 Ry
     estimated scf accuracy    <       0.00000358 Ry

     The total energy is the sum of the following terms:
     one-electron contribution =    -352.49436664 Ry
     hartree contribution      =     185.21057132 Ry
     xc contribution           =     -37.03983754 Ry
     ewald contribution        =      95.44286202 Ry

     convergence has been achieved in   7 iterations

     negative rho (up, down):  1.279E-05 0.000E+00

     Forces acting on atoms (cartesian axes, Ry/au):

     atom    1 type  1   force =     0.05401600    0.00483157    0.00000000
     atom    2 type  1   force =     0.05402895    0.00495187    0.00000000
     atom    3 type  1   force =    -0.05402427    0.00543266    0.00000000
     atom    4 type  1   force =    -0.05401556    0.00536723    0.00000000
     atom    5 type  2   force =    -0.03923214   -0.00487624    0.00000000
     atom    6 type  2   force =    -0.03933428   -0.00468617    0.00000000
     atom    7 type  2   force =     0.03933785   -0.00547894    0.00000000
     atom    8 type  2   force =     0.03922345   -0.00554198    0.00000000
     The non-local contrib.  to forces
     atom    1 type  1   force =     0.22723496    0.00745336    0.00000000
     atom    2 type  1   force =     0.22723170    0.00760795    0.00000000
     atom    3 type  1   force =    -0.22723692    0.00736840    0.00000000
     atom    4 type  1   force =    -0.22724873    0.00783773    0.00000000
     atom    5 type  2   force =     0.54455308    0.00033453    0.00000000
     atom    6 type  2   force =     0.54403246    0.00051272    0.00000000
     atom    7 type  2   force =    -0.54409893    0.00047032    0.00000000
     atom    8 type  2   force =    -0.54437517    0.00031276    0.00000000
     The ionic contribution  to forces
     atom    1 type  1   force =    -2.53045179    0.03562671   -0.00000000
     atom    2 type  1   force =    -2.53045179    0.03562671   -0.00000000
     atom    3 type  1   force =     2.53045179    0.03562671   -0.00000000
     atom    4 type  1   force =     2.53045179    0.03562671   -0.00000000
     atom    5 type  2   force =    -2.96795937   -0.03562671   -0.00000000
     atom    6 type  2   force =    -2.96795937   -0.03562671   -0.00000000
     atom    7 type  2   force =     2.96795937   -0.03562671   -0.00000000
     atom    8 type  2   force =     2.96795937   -0.03562671   -0.00000000
     The local contribution  to forces
     atom    1 type  1   force =     2.35887085   -0.03788098   -0.00007115
     atom    2 type  1   force =     2.35889988   -0.03763788    0.00000820
     atom    3 type  1   force =    -2.35886915   -0.03758065   -0.00009737
     atom    4 type  1   force =    -2.35885587   -0.03709479   -0.00005277
     atom    5 type  2   force =     2.41086887    0.03011822   -0.00016473
     atom    6 type  2   force =     2.41011870    0.03011553   -0.00031535
     atom    7 type  2   force =    -2.41083974    0.02936359    0.00014824
     atom    8 type  2   force =    -2.41027611    0.02947082   -0.00013071
     The core correction contribution to forces
     atom    1 type  1   force =    -0.00245968   -0.00053564   -0.00000085
     atom    2 type  1   force =    -0.00246604   -0.00054663    0.00000163
     atom    3 type  1   force =     0.00254301   -0.00052170   -0.00000203
     atom    4 type  1   force =     0.00254068   -0.00053261   -0.00000231
     atom    5 type  2   force =    -0.02787106    0.00029302   -0.00000907
     atom    6 type  2   force =    -0.02785751    0.00029084   -0.00000948
     atom    7 type  2   force =     0.02785292    0.00028406    0.00000446
     atom    8 type  2   force =     0.02786218    0.00029172   -0.00000356
     The Hubbard contrib.    to forces
     atom    1 type  1   force =     0.00000000    0.00000000    0.00000000
     atom    2 type  1   force =     0.00000000    0.00000000    0.00000000
     atom    3 type  1   force =     0.00000000    0.00000000    0.00000000
     atom    4 type  1   force =     0.00000000    0.00000000    0.00000000
     atom    5 type  2   force =     0.00000000    0.00000000    0.00000000
     atom    6 type  2   force =     0.00000000    0.00000000    0.00000000
     atom    7 type  2   force =     0.00000000    0.00000000    0.00000000
     atom    8 type  2   force =     0.00000000    0.00000000    0.00000000
     The SCF correction term to forces
     atom    1 type  1   force =     0.00084879    0.00013460    0.00004488
     atom    2 type  1   force =     0.00084233   -0.00013181    0.00005458
     atom    3 type  1   force =    -0.00088588    0.00050638    0.00003952
     atom    4 type  1   force =    -0.00087631   -0.00050333    0.00004617
     atom    5 type  2   force =     0.00120347   -0.00002882    0.00008600
     atom    6 type  2   force =     0.00235858   -0.00001208    0.00019242
     atom    7 type  2   force =    -0.00150864   -0.00000373    0.00004153
     atom    8 type  2   force =    -0.00191969   -0.00002410    0.00011928

     Total force =     0.134380     Total SCF correction =     0.004071


     Computing stress (Cartesian axis) and pressure


     negative rho (up, down):  1.279E-05 0.000E+00
          total   stress  (Ry/bohr**3)                   (kbar)     P=       31.17
   0.00014527   0.00000107   0.00000000           21.37        0.16        0.00
   0.00000107   0.00049510   0.00000000            0.16       72.83        0.00
   0.00000000   0.00000000  -0.00000477            0.00        0.00       -0.70


     BFGS Geometry Optimization
     Energy error            =      0.0E+00 Ry
     Gradient error          =      5.4E-02 Ry/Bohr
     Cell gradient error     =      7.3E+01 kbar

     number of scf cycles    =   1
     number of bfgs steps    =   0

     enthalpy           new  =    -108.8797226111 Ry

     new trust radius        =       0.0970755077 bohr
     new conv_thr            =       0.0000100000 Ry

     new unit-cell volume =   1566.69734 a.u.^3 (   232.16059 Ang^3 )
     density =      0.71004 g/cm^3

CELL_PARAMETERS (bohr)
   8.667266600   0.000231957   0.000000000
   0.000253783   9.565420809   0.000000000
   0.000000000   0.000000000  18.897261370

ATOMIC_POSITIONS (crystal)
B             0.1922503358        0.3746343258        0.0000000000
B             0.1922518361        0.8746470575        0.0000000000
B             0.8099368905        0.3746979424        0.0000000000
B             0.8099378986        0.8746910180        0.0000000000
N             0.3390020227        0.1244839208        0.0000000000
N             0.3389901959        0.6245040368        0.0000000000
N             0.6631984012        0.1244201339        0.0000000000
N             0.6631851544        0.6244134624        0.0000000000



     Writing config-only to output data dir ./outdir/b2n2.save/
     NEW-OLD atomic charge density approx. for the potential

     Check: negative core charge=   -0.000004

     negative rho (up, down):  1.258E-05 0.000E+00
     extrapolated charge   32.50454, renormalised to   32.00000

     total cpu time spent up to now is       29.9 secs

     Self-consistent Calculation

     iteration #  1     ecut=    80.00 Ry     beta= 0.70
     Davidson diagonalization with overlap
     ethr =  1.00E-06,  avg # of iterations = 17.0

     total cpu time spent up to now is       31.9 secs

     total energy              =    -107.21231546 Ry
     estimated scf accuracy    <       1.78456109 Ry

     iteration #  2     ecut=    80.00 Ry     beta= 0.70
     Davidson diagonalization with overlap
     ethr =  5.58E-03,  avg # of iterations =  6.0

     total cpu time spent up to now is       32.7 secs

     total energy              =    -108.14380811 Ry
     estimated scf accuracy    <       1.41212655 Ry

     iteration #  3     ecut=    80.00 Ry     beta= 0.70
     Davidson diagonalization with overlap
     ethr =  4.41E-03,  avg # of iterations =  3.0

     total cpu time spent up to now is       33.4 secs

     total energy              =    -108.18021982 Ry
     estimated scf accuracy    <       0.21407849 Ry

     iteration #  4     ecut=    80.00 Ry     beta= 0.70
     Davidson diagonalization with overlap
     ethr =  6.69E-04,  avg # of iterations = 11.0

     total cpu time spent up to now is       34.3 secs

     total energy              =    -108.80271411 Ry
     estimated scf accuracy    <       0.24924406 Ry

     iteration #  5     ecut=    80.00 Ry     beta= 0.70
     Davidson diagonalization with overlap
     ethr =  6.69E-04,  avg # of iterations =  1.0

     total cpu time spent up to now is       34.9 secs

     total energy              =    -108.74524965 Ry
     estimated scf accuracy    <       0.21161573 Ry

     iteration #  6     ecut=    80.00 Ry     beta= 0.70
     Davidson diagonalization with overlap
     ethr =  6.61E-04,  avg # of iterations =  2.0

     total cpu time spent up to now is       35.6 secs

     total energy              =    -108.72294390 Ry
     estimated scf accuracy    <       0.09882187 Ry

     iteration #  7     ecut=    80.00 Ry     beta= 0.70
     Davidson diagonalization with overlap
     ethr =  3.09E-04,  avg # of iterations =  2.0

     total cpu time spent up to now is       36.3 secs

     total energy              =    -108.71636583 Ry
     estimated scf accuracy    <       0.06053477 Ry

     iteration #  8     ecut=    80.00 Ry     beta= 0.70
     Davidson diagonalization with overlap
     ethr =  1.89E-04,  avg # of iterations = 10.0

     total cpu time spent up to now is       37.1 secs

     total energy              =    -109.04519946 Ry
     estimated scf accuracy    <       0.69066598 Ry

     iteration #  9     ecut=    80.00 Ry     beta= 0.70
     Davidson diagonalization with overlap
     ethr =  1.89E-04,  avg # of iterations =  2.0

     negative rho (up, down):  1.542E-02 0.000E+00

     total cpu time spent up to now is       37.8 secs

     total energy              =    -109.25623713 Ry
     estimated scf accuracy    <       0.49713745 Ry

     iteration # 10     ecut=    80.00 Ry     beta= 0.70
     Davidson diagonalization with overlap
     ethr =  1.89E-04,  avg # of iterations =  5.0

     negative rho (up, down):  1.005E-02 0.000E+00

     total cpu time spent up to now is       38.6 secs

     total energy              =    -109.31364979 Ry
     estimated scf accuracy    <       1.22366001 Ry

     iteration # 11     ecut=    80.00 Ry     beta= 0.70
     Davidson diagonalization with overlap
     ethr =  1.89E-04,  avg # of iterations =  1.0

     negative rho (up, down):  8.856E-03 0.000E+00

     total cpu time spent up to now is       39.3 secs

     total energy              =    -109.35797067 Ry
     estimated scf accuracy    <       1.28506907 Ry

     iteration # 12     ecut=    80.00 Ry     beta= 0.70
     Davidson diagonalization with overlap
     ethr =  1.89E-04,  avg # of iterations =  1.0

     negative rho (up, down):  3.860E-06 0.000E+00

     total cpu time spent up to now is       39.9 secs

     total energy              =    -109.37569237 Ry
     estimated scf accuracy    <       1.41323690 Ry

     iteration # 13     ecut=    80.00 Ry     beta= 0.70
     Davidson diagonalization with overlap
     ethr =  1.89E-04,  avg # of iterations =  1.0

     negative rho (up, down):  1.519E-03 0.000E+00

     total cpu time spent up to now is       40.5 secs

     total energy              =    -109.16497902 Ry
     estimated scf accuracy    <       1.47605447 Ry

     iteration # 14     ecut=    80.00 Ry     beta= 0.70
     Davidson diagonalization with overlap
     ethr =  1.89E-04,  avg # of iterations =  2.0

     negative rho (up, down):  1.908E-03 0.000E+00

     total cpu time spent up to now is       41.3 secs

     total energy              =    -109.20983075 Ry
     estimated scf accuracy    <       0.97583011 Ry

     iteration # 15     ecut=    80.00 Ry     beta= 0.70
     Davidson diagonalization with overlap
     ethr =  1.89E-04,  avg # of iterations =  1.0

     negative rho (up, down):  7.580E-06 0.000E+00

     total cpu time spent up to now is       41.9 secs

     total energy              =    -109.08403934 Ry
     estimated scf accuracy    <       1.03460736 Ry

     iteration # 16     ecut=    80.00 Ry     beta= 0.70
     Davidson diagonalization with overlap
     ethr =  1.89E-04,  avg # of iterations =  2.0

     negative rho (up, down):  1.045E-03 0.000E+00

     total cpu time spent up to now is       42.8 secs

     total energy              =    -108.81348278 Ry
     estimated scf accuracy    <       0.68503902 Ry

     iteration # 17     ecut=    80.00 Ry     beta= 0.70
     Davidson diagonalization with overlap
     ethr =  1.89E-04,  avg # of iterations =  5.0

     negative rho (up, down):  2.351E-03 0.000E+00

     total cpu time spent up to now is       43.9 secs

     total energy              =    -108.90213693 Ry
     estimated scf accuracy    <       0.05387916 Ry

     iteration # 18     ecut=    80.00 Ry     beta= 0.70
     Davidson diagonalization with overlap
     ethr =  1.68E-04,  avg # of iterations =  1.0

     negative rho (up, down):  1.398E-03 0.000E+00

     total cpu time spent up to now is       44.5 secs

     total energy              =    -108.88889534 Ry
     estimated scf accuracy    <       0.05159276 Ry

     iteration # 19     ecut=    80.00 Ry     beta= 0.70
     Davidson diagonalization with overlap
     ethr =  1.61E-04,  avg # of iterations =  2.0

     total cpu time spent up to now is       45.2 secs

     total energy              =    -108.88929952 Ry
     estimated scf accuracy    <       0.01300871 Ry

     iteration # 20     ecut=    80.00 Ry     beta= 0.70
     Davidson diagonalization with overlap
     ethr =  4.07E-05,  avg # of iterations =  4.0

     negative rho (up, down):  6.027E-08 0.000E+00

     total cpu time spent up to now is       45.9 secs

     total energy              =    -108.89026704 Ry
     estimated scf accuracy    <       0.00418960 Ry

     iteration # 21     ecut=    80.00 Ry     beta= 0.70
     Davidson diagonalization with overlap
     ethr =  1.31E-05,  avg # of iterations =  4.0

     negative rho (up, down):  5.841E-06 0.000E+00

     total cpu time spent up to now is       46.7 secs

     total energy              =    -108.89100943 Ry
     estimated scf accuracy    <       0.00079200 Ry

     iteration # 22     ecut=    80.00 Ry     beta= 0.70
     Davidson diagonalization with overlap
     ethr =  2.47E-06,  avg # of iterations =  3.0

     negative rho (up, down):  3.457E-05 0.000E+00

     total cpu time spent up to now is       47.5 secs

     total energy              =    -108.89108844 Ry
     estimated scf accuracy    <       0.00021523 Ry

     iteration # 23     ecut=    80.00 Ry     beta= 0.70
     Davidson diagonalization with overlap
     ethr =  6.73E-07,  avg # of iterations =  3.0

     negative rho (up, down):  8.950E-06 0.000E+00

     total cpu time spent up to now is       48.3 secs

     total energy              =    -108.89113689 Ry
     estimated scf accuracy    <       0.00002275 Ry

     iteration # 24     ecut=    80.00 Ry     beta= 0.70
     Davidson diagonalization with overlap
     ethr =  7.11E-08,  avg # of iterations =  5.0

     negative rho (up, down):  5.919E-06 0.000E+00

     total cpu time spent up to now is       49.1 secs

     End of self-consistent calculation

          k = 0.0000 0.0000 0.0000 (  9328 PWs)   bands (ev):

   -20.9054 -19.2165 -15.6458 -14.3819 -12.1887 -11.1372  -9.4875  -8.4750
    -7.4098  -6.9653  -4.6220  -4.5151  -4.4199  -3.3396  -2.0854  -0.3891

     highest occupied level (ev):    -0.3891

!    total energy              =    -108.89114628 Ry
     estimated scf accuracy    <       0.00000263 Ry

     The total energy is the sum of the following terms:
     one-electron contribution =    -347.11982810 Ry
     hartree contribution      =     182.35534750 Ry
     xc contribution           =     -36.93909269 Ry
     ewald contribution        =      92.81242701 Ry

     convergence has been achieved in  24 iterations

     negative rho (up, down):  5.919E-06 0.000E+00

     Forces acting on atoms (cartesian axes, Ry/au):

     atom    1 type  1   force =    -0.03231656   -0.00104667    0.00000000
     atom    2 type  1   force =    -0.03236218   -0.00105247    0.00000000
     atom    3 type  1   force =     0.03247996   -0.00170830    0.00000000
     atom    4 type  1   force =     0.03253946   -0.00190476    0.00000000
     atom    5 type  2   force =     0.04711168    0.00124737    0.00000000
     atom    6 type  2   force =     0.04765016    0.00086294    0.00000000
     atom    7 type  2   force =    -0.04751762    0.00168912    0.00000000
     atom    8 type  2   force =    -0.04758490    0.00191278    0.00000000
     The non-local contrib.  to forces
     atom    1 type  1   force =     0.17617514   -0.00100602    0.00000000
     atom    2 type  1   force =     0.17611972   -0.00148953    0.00000000
     atom    3 type  1   force =    -0.17617460   -0.00231268    0.00000000
     atom    4 type  1   force =    -0.17614733   -0.00296575    0.00000000
     atom    5 type  2   force =     0.58682740   -0.00007264    0.00000000
     atom    6 type  2   force =     0.58787463   -0.00022207    0.00000000
     atom    7 type  2   force =    -0.58761793   -0.00001598    0.00000000
     atom    8 type  2   force =    -0.58770146    0.00029145    0.00000000
     The ionic contribution  to forces
     atom    1 type  1   force =    -2.56460825   -0.00617098   -0.00000000
     atom    2 type  1   force =    -2.56531029   -0.00643299   -0.00000000
     atom    3 type  1   force =     2.56506526   -0.01239448   -0.00000000
     atom    4 type  1   force =     2.56487006   -0.01254048   -0.00000000
     atom    5 type  2   force =    -2.63018182    0.00770981   -0.00000000
     atom    6 type  2   force =    -2.63067628    0.00645809   -0.00000000
     atom    7 type  2   force =     2.63051079    0.01173529   -0.00000000
     atom    8 type  2   force =     2.63033053    0.01163574   -0.00000000
     The local contribution  to forces
     atom    1 type  1   force =     2.35637531    0.00662440    0.00030339
     atom    2 type  1   force =     2.35714578    0.00622912    0.00041427
     atom    3 type  1   force =    -2.35683852    0.01388490    0.00033415
     atom    4 type  1   force =    -2.35662069    0.01249345    0.00040736
     atom    5 type  2   force =     2.11971952   -0.00636119    0.00052972
     atom    6 type  2   force =     2.12147011   -0.00483603    0.00073515
     atom    7 type  2   force =    -2.12029391   -0.01009036    0.00055054
     atom    8 type  2   force =    -2.12077566   -0.00988871    0.00010750
     The core correction contribution to forces
     atom    1 type  1   force =    -0.00060190    0.00008592    0.00000083
     atom    2 type  1   force =    -0.00059587    0.00010264    0.00000523
     atom    3 type  1   force =     0.00061120    0.00017122    0.00000426
     atom    4 type  1   force =     0.00061138    0.00019538    0.00000823
     atom    5 type  2   force =    -0.03046716   -0.00005461   -0.00002054
     atom    6 type  2   force =    -0.03049001   -0.00003579    0.00000186
     atom    7 type  2   force =     0.03049505   -0.00010976    0.00000451
     atom    8 type  2   force =     0.03048625   -0.00012055   -0.00001805
     The Hubbard contrib.    to forces
     atom    1 type  1   force =     0.00000000    0.00000000    0.00000000
     atom    2 type  1   force =     0.00000000    0.00000000    0.00000000
     atom    3 type  1   force =     0.00000000    0.00000000    0.00000000
     atom    4 type  1   force =     0.00000000    0.00000000    0.00000000
     atom    5 type  2   force =     0.00000000    0.00000000    0.00000000
     atom    6 type  2   force =     0.00000000    0.00000000    0.00000000
     atom    7 type  2   force =     0.00000000    0.00000000    0.00000000
     atom    8 type  2   force =     0.00000000    0.00000000    0.00000000
     The SCF correction term to forces
     atom    1 type  1   force =     0.00027008   -0.00052421   -0.00022125
     atom    2 type  1   force =     0.00020541    0.00059407   -0.00029913
     atom    3 type  1   force =    -0.00025644   -0.00100147   -0.00021194
     atom    4 type  1   force =    -0.00024702    0.00096842   -0.00029252
     atom    5 type  2   force =     0.00114068    0.00008178   -0.00069855
     atom    6 type  2   force =    -0.00060135   -0.00044548   -0.00053767
     atom    7 type  2   force =    -0.00068468    0.00022571   -0.00049983
     atom    8 type  2   force =     0.00000239    0.00005063   -0.00045231

     Total force =     0.115045     Total SCF correction =     0.002589


     Computing stress (Cartesian axis) and pressure


     negative rho (up, down):  5.919E-06 0.000E+00
          total   stress  (Ry/bohr**3)                   (kbar)     P=       18.94
  -0.00004722  -0.00000031   0.00000000           -6.95       -0.05        0.00
  -0.00000031   0.00043465   0.00000000           -0.05       63.94        0.00
   0.00000000   0.00000000  -0.00000110            0.00        0.00       -0.16

     Energy error            =      1.0E-02 Ry
     Gradient error          =      4.8E-02 Ry/Bohr
     Cell gradient error     =      6.4E+01 kbar

     number of scf cycles    =   2
     number of bfgs steps    =   1

     enthalpy           old  =    -108.8797226111 Ry
     enthalpy           new  =    -108.8900812595 Ry

     CASE: enthalpy          _new < enthalpy          _old

     new trust radius        =       0.1124490752 bohr
     new conv_thr            =       0.0000047650 Ry

     new unit-cell volume =   1589.95737 a.u.^3 (   235.60737 Ang^3 )
     density =      0.69965 g/cm^3

CELL_PARAMETERS (bohr)
   8.672751336   0.000278950   0.000000000
   0.000308198   9.701295133   0.000000000
   0.000000000   0.000000000  18.897261370

ATOMIC_POSITIONS (crystal)
B             0.1920030029        0.3747722957        0.0000000000
B             0.1920008699        0.8747902275        0.0000000000
B             0.8101992076        0.3748069987        0.0000000000
B             0.8102062818        0.8747798786        0.0000000000
N             0.3414126158        0.1243613290        0.0000000000
N             0.3414463067        0.6243570105        0.0000000000
N             0.6607549906        0.1243071792        0.0000000000
N             0.6607294600        0.6243169784        0.0000000000



     Writing config-only to output data dir ./outdir/b2n2.save/
     NEW-OLD atomic charge density approx. for the potential

     Check: negative core charge=   -0.000004

     negative rho (up, down):  5.204E-06 0.000E+00
     extrapolated charge   32.46812, renormalised to   32.00000

     total cpu time spent up to now is       68.0 secs

     Self-consistent Calculation

     iteration #  1     ecut=    80.00 Ry     beta= 0.70
     Davidson diagonalization with overlap
     ethr =  1.00E-06,  avg # of iterations = 11.0

     total cpu time spent up to now is       69.4 secs

     total energy              =    -108.85542405 Ry
     estimated scf accuracy    <       0.02702350 Ry

     iteration #  2     ecut=    80.00 Ry     beta= 0.70
     Davidson diagonalization with overlap
     ethr =  8.44E-05,  avg # of iterations =  5.0

     total cpu time spent up to now is       70.4 secs

     total energy              =    -108.89729446 Ry
     estimated scf accuracy    <       0.07638096 Ry

     iteration #  3     ecut=    80.00 Ry     beta= 0.70
     Davidson diagonalization with overlap
     ethr =  8.44E-05,  avg # of iterations =  2.0

     total cpu time spent up to now is       71.1 secs

     total energy              =    -108.89533354 Ry
     estimated scf accuracy    <       0.01718535 Ry

     iteration #  4     ecut=    80.00 Ry     beta= 0.70
     Davidson diagonalization with overlap
     ethr =  5.37E-05,  avg # of iterations =  4.0

     total cpu time spent up to now is       71.9 secs

     total energy              =    -108.89866672 Ry
     estimated scf accuracy    <       0.00106479 Ry

     iteration #  5     ecut=    80.00 Ry     beta= 0.70
     Davidson diagonalization with overlap
     ethr =  3.33E-06,  avg # of iterations =  4.0

     negative rho (up, down):  1.415E-08 0.000E+00

     total cpu time spent up to now is       72.6 secs

     total energy              =    -108.89891906 Ry
     estimated scf accuracy    <       0.00082993 Ry

     iteration #  6     ecut=    80.00 Ry     beta= 0.70
     Davidson diagonalization with overlap
     ethr =  2.59E-06,  avg # of iterations =  1.0

     negative rho (up, down):  6.866E-06 0.000E+00

     total cpu time spent up to now is       73.3 secs

     total energy              =    -108.89859954 Ry
     estimated scf accuracy    <       0.00086236 Ry

     iteration #  7     ecut=    80.00 Ry     beta= 0.70
     Davidson diagonalization with overlap
     ethr =  2.59E-06,  avg # of iterations =  2.0

     negative rho (up, down):  1.100E-05 0.000E+00

     total cpu time spent up to now is       73.9 secs

     total energy              =    -108.89854399 Ry
     estimated scf accuracy    <       0.00027409 Ry

     iteration #  8     ecut=    80.00 Ry     beta= 0.70
     Davidson diagonalization with overlap
     ethr =  8.57E-07,  avg # of iterations =  2.0

     negative rho (up, down):  1.050E-05 0.000E+00

     total cpu time spent up to now is       74.7 secs

     total energy              =    -108.89859349 Ry
     estimated scf accuracy    <       0.00000982 Ry

     iteration #  9     ecut=    80.00 Ry     beta= 0.70
     Davidson diagonalization with overlap
     ethr =  3.07E-08,  avg # of iterations =  5.0

     negative rho (up, down):  7.883E-06 0.000E+00

     total cpu time spent up to now is       75.7 secs

     total energy              =    -108.89859609 Ry
     estimated scf accuracy    <       0.00004069 Ry

     iteration # 10     ecut=    80.00 Ry     beta= 0.70
     Davidson diagonalization with overlap
     ethr =  3.07E-08,  avg # of iterations =  3.0

     negative rho (up, down):  9.373E-06 0.000E+00

     total cpu time spent up to now is       76.5 secs

     End of self-consistent calculation

          k = 0.0000 0.0000 0.0000 (  9328 PWs)   bands (ev):

   -20.9404 -19.3583 -15.4439 -14.2076 -12.1446 -11.1515  -9.5107  -8.3048
    -7.3650  -7.0274  -4.8094  -4.6251  -4.3084  -3.1645  -2.3059  -0.3078

     highest occupied level (ev):    -0.3078

!    total energy              =    -108.89860238 Ry
     estimated scf accuracy    <       0.00000079 Ry

     The total energy is the sum of the following terms:
     one-electron contribution =    -342.62136611 Ry
     hartree contribution      =     180.04644526 Ry
     xc contribution           =     -36.82027094 Ry
     ewald contribution        =      90.49658940 Ry

     convergence has been achieved in  10 iterations

     negative rho (up, down):  9.373E-06 0.000E+00

     Forces acting on atoms (cartesian axes, Ry/au):

     atom    1 type  1   force =    -0.00568656   -0.00261494    0.00000000
     atom    2 type  1   force =    -0.00566769   -0.00297326    0.00000000
     atom    3 type  1   force =     0.00551823   -0.00229229    0.00000000
     atom    4 type  1   force =     0.00548366   -0.00214838    0.00000000
     atom    5 type  2   force =     0.00029515    0.00303611    0.00000000
     atom    6 type  2   force =    -0.00010002    0.00307730    0.00000000
     atom    7 type  2   force =    -0.00008405    0.00201823    0.00000000
     atom    8 type  2   force =     0.00024128    0.00189724    0.00000000
     The non-local contrib.  to forces
     atom    1 type  1   force =     0.20302116   -0.00358441    0.00000000
     atom    2 type  1   force =     0.20306873   -0.00379316    0.00000000
     atom    3 type  1   force =    -0.20317599   -0.00436485    0.00000000
     atom    4 type  1   force =    -0.20317336   -0.00406173    0.00000000
     atom    5 type  2   force =     0.57015240   -0.00043747    0.00000000
     atom    6 type  2   force =     0.57026757   -0.00035446    0.00000000
     atom    7 type  2   force =    -0.57018339   -0.00046354    0.00000000
     atom    8 type  2   force =    -0.56991987   -0.00063184    0.00000000
     The ionic contribution  to forces
     atom    1 type  1   force =    -2.47753996   -0.01685138   -0.00000000
     atom    2 type  1   force =    -2.47731191   -0.01858438   -0.00000000
     atom    3 type  1   force =     2.47710715   -0.02132834   -0.00000000
     atom    4 type  1   force =     2.47728672   -0.02071045   -0.00000000
     atom    5 type  2   force =    -2.95147992    0.01823381   -0.00000000
     atom    6 type  2   force =    -2.95484754    0.01828747   -0.00000000
     atom    7 type  2   force =     2.95252561    0.02062609   -0.00000000
     atom    8 type  2   force =     2.95425985    0.02032719   -0.00000000
     The local contribution  to forces
     atom    1 type  1   force =     2.27062269    0.01754119   -0.00000730
     atom    2 type  1   force =     2.27036231    0.01918301   -0.00002277
     atom    3 type  1   force =    -2.27019623    0.02304252   -0.00000284
     atom    4 type  1   force =    -2.27040810    0.02240067   -0.00000132
     atom    5 type  2   force =     2.40905175   -0.01459776    0.00003487
     atom    6 type  2   force =     2.41177599   -0.01466969    0.00001771
     atom    7 type  2   force =    -2.40981173   -0.01801068    0.00002471
     atom    8 type  2   force =    -2.41141572   -0.01764252   -0.00000981
     The core correction contribution to forces
     atom    1 type  1   force =    -0.00207179    0.00027639    0.00000006
     atom    2 type  1   force =    -0.00207448    0.00029189   -0.00000102
     atom    3 type  1   force =     0.00209196    0.00034139    0.00000015
     atom    4 type  1   force =     0.00209098    0.00032821   -0.00000006
     atom    5 type  2   force =    -0.02810758   -0.00012787    0.00000286
     atom    6 type  2   force =    -0.02809552   -0.00013283    0.00000205
     atom    7 type  2   force =     0.02810028   -0.00016607    0.00000101
     atom    8 type  2   force =     0.02808602   -0.00015981   -0.00000195
     The Hubbard contrib.    to forces
     atom    1 type  1   force =     0.00000000    0.00000000    0.00000000
     atom    2 type  1   force =     0.00000000    0.00000000    0.00000000
     atom    3 type  1   force =     0.00000000    0.00000000    0.00000000
     atom    4 type  1   force =     0.00000000    0.00000000    0.00000000
     atom    5 type  2   force =     0.00000000    0.00000000    0.00000000
     atom    6 type  2   force =     0.00000000    0.00000000    0.00000000
     atom    7 type  2   force =     0.00000000    0.00000000    0.00000000
     atom    8 type  2   force =     0.00000000    0.00000000    0.00000000
     The SCF correction term to forces
     atom    1 type  1   force =     0.00029117    0.00003887    0.00000021
     atom    2 type  1   force =     0.00029749   -0.00003503    0.00000134
     atom    3 type  1   force =    -0.00029883    0.00005258   -0.00000054
     atom    4 type  1   force =    -0.00030275   -0.00006949   -0.00000144
     atom    5 type  2   force =     0.00068833    0.00000098    0.00000221
     atom    6 type  2   force =     0.00080930   -0.00001760   -0.00000529
     atom    7 type  2   force =    -0.00070499    0.00006803   -0.00000328
     atom    8 type  2   force =    -0.00075917    0.00003981   -0.00000339

     Total force =     0.013306     Total SCF correction =     0.001604
     SCF correction compared to forces is large: reduce conv_thr to get better values


     Computing stress (Cartesian axis) and pressure


     negative rho (up, down):  9.373E-06 0.000E+00
          total   stress  (Ry/bohr**3)                   (kbar)     P=        0.63
  -0.00003602   0.00000129   0.00000000           -5.30        0.19        0.00
   0.00000129   0.00005106   0.00000000            0.19        7.51        0.00
   0.00000000   0.00000000  -0.00000218            0.00        0.00       -0.32

     Energy error            =      7.4E-03 Ry
     Gradient error          =      5.7E-03 Ry/Bohr
     Cell gradient error     =      7.4E+00 kbar

     number of scf cycles    =   3
     number of bfgs steps    =   2

     enthalpy           old  =    -108.8900812595 Ry
     enthalpy           new  =    -108.8975215513 Ry

     CASE: enthalpy          _new < enthalpy          _old

     new trust radius        =       0.0147825882 bohr
     new conv_thr            =       0.0000005687 Ry

     new unit-cell volume =   1591.55232 a.u.^3 (   235.84372 Ang^3 )
     density =      0.69895 g/cm^3

CELL_PARAMETERS (bohr)
   8.665391957   0.000601298   0.000000000
   0.000654117   9.719274346   0.000000000
   0.000000000   0.000000000  18.897261370

ATOMIC_POSITIONS (crystal)
B             0.1915879426        0.3744874870        0.0000000000
B             0.1915882837        0.8744636879        0.0000000000
B             0.8105928535        0.3745635562        0.0000000000
B             0.8105955782        0.8745531958        0.0000000000
N             0.3412185387        0.1246955582        0.0000000000
N             0.3412014909        0.6246971948        0.0000000000
N             0.6609765208        0.1245180551        0.0000000000
N             0.6609915269        0.6245131626        0.0000000000



     Writing config-only to output data dir ./outdir/b2n2.save/
     NEW-OLD atomic charge density approx. for the potential

     Check: negative core charge=   -0.000004

     negative rho (up, down):  9.282E-06 0.000E+00
     extrapolated charge   32.03207, renormalised to   32.00000

     total cpu time spent up to now is       95.3 secs

     Self-consistent Calculation

     iteration #  1     ecut=    80.00 Ry     beta= 0.70
     Davidson diagonalization with overlap
     ethr =  1.00E-06,  avg # of iterations = 12.0

     negative rho (up, down):  8.352E-06 0.000E+00

     total cpu time spent up to now is       96.4 secs

     total energy              =    -108.89839308 Ry
     estimated scf accuracy    <       0.00076447 Ry

     iteration #  2     ecut=    80.00 Ry     beta= 0.70
     Davidson diagonalization with overlap
     ethr =  2.39E-06,  avg # of iterations =  9.0

     negative rho (up, down):  8.566E-06 0.000E+00

     total cpu time spent up to now is       97.3 secs

     total energy              =    -108.89877243 Ry
     estimated scf accuracy    <       0.00104005 Ry

     iteration #  3     ecut=    80.00 Ry     beta= 0.70
     Davidson diagonalization with overlap
     ethr =  2.39E-06,  avg # of iterations =  2.0

     negative rho (up, down):  8.968E-06 0.000E+00

     total cpu time spent up to now is       98.0 secs

     total energy              =    -108.89877564 Ry
     estimated scf accuracy    <       0.00023536 Ry

     iteration #  4     ecut=    80.00 Ry     beta= 0.70
     Davidson diagonalization with overlap
     ethr =  7.35E-07,  avg # of iterations =  4.0

     negative rho (up, down):  9.070E-06 0.000E+00

     total cpu time spent up to now is       98.8 secs

     total energy              =    -108.89881214 Ry
     estimated scf accuracy    <       0.00004654 Ry

     iteration #  5     ecut=    80.00 Ry     beta= 0.70
     Davidson diagonalization with overlap
     ethr =  1.45E-07,  avg # of iterations = 11.0

     negative rho (up, down):  9.287E-06 0.000E+00

     total cpu time spent up to now is       99.6 secs

     total energy              =    -108.89883984 Ry
     estimated scf accuracy    <       0.00002234 Ry

     iteration #  6     ecut=    80.00 Ry     beta= 0.70
     Davidson diagonalization with overlap
     ethr =  6.98E-08,  avg # of iterations =  4.0

     negative rho (up, down):  9.381E-06 0.000E+00

     total cpu time spent up to now is      100.4 secs

     total energy              =    -108.89884211 Ry
     estimated scf accuracy    <       0.00001903 Ry

     iteration #  7     ecut=    80.00 Ry     beta= 0.70
     Davidson diagonalization with overlap
     ethr =  5.95E-08,  avg # of iterations =  1.0

     negative rho (up, down):  9.521E-06 0.000E+00

     total cpu time spent up to now is      101.1 secs

     total energy              =    -108.89884012 Ry
     estimated scf accuracy    <       0.00000975 Ry

     iteration #  8     ecut=    80.00 Ry     beta= 0.70
     Davidson diagonalization with overlap
     ethr =  3.05E-08,  avg # of iterations =  2.0

     negative rho (up, down):  9.582E-06 0.000E+00

     total cpu time spent up to now is      101.8 secs

     total energy              =    -108.89884067 Ry
     estimated scf accuracy    <       0.00000131 Ry

     iteration #  9     ecut=    80.00 Ry     beta= 0.70
     Davidson diagonalization with overlap
     ethr =  4.09E-09,  avg # of iterations = 20.0

     negative rho (up, down):  9.591E-06 0.000E+00

     total cpu time spent up to now is      102.8 secs

     total energy              =    -108.89884129 Ry
     estimated scf accuracy    <       0.00000086 Ry

     iteration # 10     ecut=    80.00 Ry     beta= 0.70
     Davidson diagonalization with overlap
     ethr =  2.68E-09,  avg # of iterations =  2.0

     negative rho (up, down):  9.626E-06 0.000E+00

     total cpu time spent up to now is      103.6 secs

     End of self-consistent calculation

          k = 0.0000 0.0000 0.0000 (  9328 PWs)   bands (ev):

   -20.9214 -19.3515 -15.4231 -14.1926 -12.1316 -11.1515  -9.5029  -8.2906
    -7.3537  -7.0347  -4.8430  -4.6251  -4.3095  -3.1469  -2.3118  -0.3106

     highest occupied level (ev):    -0.3106

!    total energy              =    -108.89884128 Ry
     estimated scf accuracy    <       0.00000023 Ry

     The total energy is the sum of the following terms:
     one-electron contribution =    -342.17076081 Ry
     hartree contribution      =     179.81970378 Ry
     xc contribution           =     -36.80863389 Ry
     ewald contribution        =      90.26084964 Ry

     convergence has been achieved in  10 iterations

     negative rho (up, down):  9.626E-06 0.000E+00

     Forces acting on atoms (cartesian axes, Ry/au):

     atom    1 type  1   force =    -0.00100023   -0.00667184    0.00000000
     atom    2 type  1   force =    -0.00098966   -0.00630698    0.00000000
     atom    3 type  1   force =     0.00109461    0.00743678    0.00000000
     atom    4 type  1   force =     0.00106961    0.00761183    0.00000000
     atom    5 type  2   force =    -0.00126487    0.01107395    0.00000000
     atom    6 type  2   force =    -0.00107331    0.01103385    0.00000000
     atom    7 type  2   force =     0.00121575   -0.01211932    0.00000000
     atom    8 type  2   force =     0.00094809   -0.01205827    0.00000000
     The non-local contrib.  to forces
     atom    1 type  1   force =     0.21054833    0.00044650    0.00000000
     atom    2 type  1   force =     0.21055296    0.00066649    0.00000000
     atom    3 type  1   force =    -0.21051880    0.00108658    0.00000000
     atom    4 type  1   force =    -0.21055630    0.00113905    0.00000000
     atom    5 type  2   force =     0.56905779    0.00281085    0.00000000
     atom    6 type  2   force =     0.56897120    0.00277634    0.00000000
     atom    7 type  2   force =    -0.56901716   -0.00260008    0.00000000
     atom    8 type  2   force =    -0.56913596   -0.00248158    0.00000000
     The ionic contribution  to forces
     atom    1 type  1   force =    -2.44083016    0.00909107   -0.00000000
     atom    2 type  1   force =    -2.44085562    0.01093133   -0.00000000
     atom    3 type  1   force =     2.44101949   -0.00296538   -0.00000000
     atom    4 type  1   force =     2.44081670   -0.00181075   -0.00000000
     atom    5 type  2   force =    -2.94451503   -0.00798732   -0.00000000
     atom    6 type  2   force =    -2.94227467   -0.00795280   -0.00000000
     atom    7 type  2   force =     2.94419726    0.00016942   -0.00000000
     atom    8 type  2   force =     2.94244202    0.00052443   -0.00000000
     The local contribution  to forces
     atom    1 type  1   force =     2.23177811   -0.01595044   -0.00000104
     atom    2 type  1   force =     2.23178387   -0.01767674   -0.00000148
     atom    3 type  1   force =    -2.23193926    0.00913714    0.00000954
     atom    4 type  1   force =    -2.23171192    0.00814338    0.00000404
     atom    5 type  2   force =     2.40225594    0.01590151    0.00003938
     atom    6 type  2   force =     2.40030228    0.01571233   -0.00007938
     atom    7 type  2   force =    -2.40197116   -0.00920177    0.00003252
     atom    8 type  2   force =    -2.40049574   -0.00968492   -0.00007112
     The core correction contribution to forces
     atom    1 type  1   force =    -0.00244481   -0.00011010    0.00000006
     atom    2 type  1   force =    -0.00244558   -0.00012710    0.00000002
     atom    3 type  1   force =     0.00246757    0.00014073    0.00000016
     atom    4 type  1   force =     0.00246956    0.00013511    0.00000034
     atom    5 type  2   force =    -0.02797898    0.00005138    0.00000230
     atom    6 type  2   force =    -0.02799055    0.00004970   -0.00000241
     atom    7 type  2   force =     0.02797978    0.00001104    0.00000137
     atom    8 type  2   force =     0.02798922    0.00000163   -0.00000262
     The Hubbard contrib.    to forces
     atom    1 type  1   force =     0.00000000    0.00000000    0.00000000
     atom    2 type  1   force =     0.00000000    0.00000000    0.00000000
     atom    3 type  1   force =     0.00000000    0.00000000    0.00000000
     atom    4 type  1   force =     0.00000000    0.00000000    0.00000000
     atom    5 type  2   force =     0.00000000    0.00000000    0.00000000
     atom    6 type  2   force =     0.00000000    0.00000000    0.00000000
     atom    7 type  2   force =     0.00000000    0.00000000    0.00000000
     atom    8 type  2   force =     0.00000000    0.00000000    0.00000000
     The SCF correction term to forces
     atom    1 type  1   force =    -0.00005904   -0.00009890    0.00000448
     atom    2 type  1   force =    -0.00003262   -0.00005098    0.00000443
     atom    3 type  1   force =     0.00005828    0.00008767    0.00000170
     atom    4 type  1   force =     0.00004424    0.00005500    0.00000192
     atom    5 type  2   force =    -0.00009192    0.00034751   -0.00000176
     atom    6 type  2   force =    -0.00008890    0.00049825    0.00004353
     atom    7 type  2   force =     0.00001969   -0.00044796   -0.00000693
     atom    8 type  2   force =     0.00014121   -0.00036785    0.00001592

     Total force =     0.027270     Total SCF correction =     0.000881


     Computing stress (Cartesian axis) and pressure


     negative rho (up, down):  9.626E-06 0.000E+00
          total   stress  (Ry/bohr**3)                   (kbar)     P=       -0.74
  -0.00002778   0.00002708   0.00000000           -4.09        3.98        0.00
   0.00002708   0.00001394   0.00000000            3.98        2.05        0.00
   0.00000000   0.00000000  -0.00000133            0.00        0.00       -0.20

     Energy error            =      2.4E-04 Ry
     Gradient error          =      1.2E-02 Ry/Bohr
     Cell gradient error     =      4.2E+00 kbar

     number of scf cycles    =   4
     number of bfgs steps    =   3

     enthalpy           old  =    -108.8975215513 Ry
     enthalpy           new  =    -108.8977593617 Ry

     CASE: enthalpy          _new < enthalpy          _old

     new trust radius        =       0.0442879081 bohr
     new conv_thr            =       0.0000002378 Ry

     new unit-cell volume =   1595.80621 a.u.^3 (   236.47408 Ang^3 )
     density =      0.69709 g/cm^3

CELL_PARAMETERS (bohr)
   8.640839196   0.005468611   0.000000000
   0.005854500   9.772946555   0.000000000
   0.000000000   0.000000000  18.897261370

ATOMIC_POSITIONS (crystal)
B             0.1903731291        0.3732165352        0.0000000000
B             0.1903811632        0.8731025891        0.0000000000
B             0.8117552667        0.3744212328        0.0000000000
B             0.8117439903        0.8744700266        0.0000000000
N             0.3405825737        0.1264206211        0.0000000000
N             0.3404389456        0.6264358791        0.0000000000
N             0.6616851062        0.1242332064        0.0000000000
N             0.6617925605        0.6241918074        0.0000000000



     Writing config-only to output data dir ./outdir/b2n2.save/
     NEW-OLD atomic charge density approx. for the potential

     Check: negative core charge=   -0.000004

     negative rho (up, down):  9.475E-06 0.000E+00
     extrapolated charge   32.08530, renormalised to   32.00000

     total cpu time spent up to now is      123.0 secs

     Self-consistent Calculation

     iteration #  1     ecut=    80.00 Ry     beta= 0.70
     Davidson diagonalization with overlap
     c_bands:  1 eigenvalues not converged
     ethr =  1.00E-06,  avg # of iterations = 20.0

     negative rho (up, down):  1.750E-06 0.000E+00

     total cpu time spent up to now is      124.7 secs

     total energy              =    -108.68592714 Ry
     estimated scf accuracy    <       0.32549326 Ry

     iteration #  2     ecut=    80.00 Ry     beta= 0.70
     Davidson diagonalization with overlap
     ethr =  1.02E-03,  avg # of iterations =  7.0

     negative rho (up, down):  2.899E-06 0.000E+00

     total cpu time spent up to now is      125.6 secs

     total energy              =    -108.87833157 Ry
     estimated scf accuracy    <       0.82998308 Ry

     iteration #  3     ecut=    80.00 Ry     beta= 0.70
     Davidson diagonalization with overlap
     ethr =  1.02E-03,  avg # of iterations =  2.0

     negative rho (up, down):  4.536E-06 0.000E+00

     total cpu time spent up to now is      126.4 secs

     total energy              =    -108.87109410 Ry
     estimated scf accuracy    <       0.19804313 Ry

     iteration #  4     ecut=    80.00 Ry     beta= 0.70
     Davidson diagonalization with overlap
     ethr =  6.19E-04,  avg # of iterations =  3.0

     negative rho (up, down):  5.142E-06 0.000E+00

     total cpu time spent up to now is      127.2 secs

     total energy              =    -108.89911306 Ry
     estimated scf accuracy    <       0.02638847 Ry

     iteration #  5     ecut=    80.00 Ry     beta= 0.70
     Davidson diagonalization with overlap
     ethr =  8.25E-05,  avg # of iterations =  2.0

     negative rho (up, down):  5.451E-06 0.000E+00

     total cpu time spent up to now is      127.9 secs

     total energy              =    -108.90125272 Ry
     estimated scf accuracy    <       0.01966981 Ry

     iteration #  6     ecut=    80.00 Ry     beta= 0.70
     Davidson diagonalization with overlap
     ethr =  6.15E-05,  avg # of iterations =  1.0

     negative rho (up, down):  5.737E-06 0.000E+00

     total cpu time spent up to now is      128.5 secs

     total energy              =    -108.90112882 Ry
     estimated scf accuracy    <       0.01672326 Ry

     iteration #  7     ecut=    80.00 Ry     beta= 0.70
     Davidson diagonalization with overlap
     ethr =  5.23E-05,  avg # of iterations =  1.0

     negative rho (up, down):  6.361E-06 0.000E+00

     total cpu time spent up to now is      129.1 secs

     total energy              =    -108.90046162 Ry
     estimated scf accuracy    <       0.01467586 Ry

     iteration #  8     ecut=    80.00 Ry     beta= 0.70
     Davidson diagonalization with overlap
     ethr =  4.59E-05,  avg # of iterations =  1.0

     negative rho (up, down):  7.377E-06 0.000E+00

     total cpu time spent up to now is      129.8 secs

     total energy              =    -108.89896115 Ry
     estimated scf accuracy    <       0.01144033 Ry

     iteration #  9     ecut=    80.00 Ry     beta= 0.70
     Davidson diagonalization with overlap
     ethr =  3.58E-05,  avg # of iterations =  1.0

     negative rho (up, down):  9.083E-06 0.000E+00

     total cpu time spent up to now is      130.4 secs

     total energy              =    -108.89751114 Ry
     estimated scf accuracy    <       0.00648721 Ry

     iteration # 10     ecut=    80.00 Ry     beta= 0.70
     Davidson diagonalization with overlap
     ethr =  2.03E-05,  avg # of iterations =  9.0

     negative rho (up, down):  1.012E-05 0.000E+00

     total cpu time spent up to now is      131.3 secs

     total energy              =    -108.90456206 Ry
     estimated scf accuracy    <       0.02002893 Ry

     iteration # 11     ecut=    80.00 Ry     beta= 0.70
     Davidson diagonalization with overlap
     ethr =  2.03E-05,  avg # of iterations =  2.0

     negative rho (up, down):  1.013E-05 0.000E+00

     total cpu time spent up to now is      132.0 secs

     total energy              =    -108.90484590 Ry
     estimated scf accuracy    <       0.02646003 Ry

     iteration # 12     ecut=    80.00 Ry     beta= 0.70
     Davidson diagonalization with overlap
     ethr =  2.03E-05,  avg # of iterations =  1.0

     negative rho (up, down):  9.584E-06 0.000E+00

     total cpu time spent up to now is      132.6 secs

     total energy              =    -108.90402733 Ry
     estimated scf accuracy    <       0.02767008 Ry

     iteration # 13     ecut=    80.00 Ry     beta= 0.70
     Davidson diagonalization with overlap
     ethr =  2.03E-05,  avg # of iterations =  1.0

     negative rho (up, down):  1.027E-05 0.000E+00

     total cpu time spent up to now is      133.2 secs

     total energy              =    -108.90275739 Ry
     estimated scf accuracy    <       0.02597677 Ry

     iteration # 14     ecut=    80.00 Ry     beta= 0.70
     Davidson diagonalization with overlap
     ethr =  2.03E-05,  avg # of iterations =  1.0

     negative rho (up, down):  1.004E-05 0.000E+00

     total cpu time spent up to now is      133.9 secs

     total energy              =    -108.90427481 Ry
     estimated scf accuracy    <       0.02325044 Ry

     iteration # 15     ecut=    80.00 Ry     beta= 0.70
     Davidson diagonalization with overlap
     ethr =  2.03E-05,  avg # of iterations =  1.0

     negative rho (up, down):  9.833E-06 0.000E+00

     total cpu time spent up to now is      134.5 secs

     total energy              =    -108.90429277 Ry
     estimated scf accuracy    <       0.02639834 Ry

     iteration # 16     ecut=    80.00 Ry     beta= 0.70
     Davidson diagonalization with overlap
     ethr =  2.03E-05,  avg # of iterations =  1.0

     negative rho (up, down):  9.790E-06 0.000E+00

     total cpu time spent up to now is      135.2 secs

     total energy              =    -108.89843527 Ry
     estimated scf accuracy    <       0.02662347 Ry

     iteration # 17     ecut=    80.00 Ry     beta= 0.70
     Davidson diagonalization with overlap
     ethr =  2.03E-05,  avg # of iterations =  8.0

     negative rho (up, down):  1.118E-05 0.000E+00

     total cpu time spent up to now is      136.1 secs

     total energy              =    -108.90140291 Ry
     estimated scf accuracy    <       0.00326855 Ry

     iteration # 18     ecut=    80.00 Ry     beta= 0.70
     Davidson diagonalization with overlap
     ethr =  1.02E-05,  avg # of iterations =  2.0

     negative rho (up, down):  1.367E-05 0.000E+00

     total cpu time spent up to now is      136.9 secs

     total energy              =    -108.90248016 Ry
     estimated scf accuracy    <       0.00182028 Ry

     iteration # 19     ecut=    80.00 Ry     beta= 0.70
     Davidson diagonalization with overlap
     ethr =  5.69E-06,  avg # of iterations = 12.0

     negative rho (up, down):  9.126E-06 0.000E+00

     total cpu time spent up to now is      137.9 secs

     total energy              =    -108.90211754 Ry
     estimated scf accuracy    <       0.35255956 Ry

     iteration # 20     ecut=    80.00 Ry     beta= 0.70
     Davidson diagonalization with overlap
     ethr =  5.69E-06,  avg # of iterations = 13.0

     negative rho (up, down):  8.949E-06 0.000E+00

     total cpu time spent up to now is      138.8 secs

     total energy              =    -108.90630085 Ry
     estimated scf accuracy    <       0.08551442 Ry

     iteration # 21     ecut=    80.00 Ry     beta= 0.70
     Davidson diagonalization with overlap
     ethr =  5.69E-06,  avg # of iterations =  1.0

     negative rho (up, down):  8.821E-06 0.000E+00

     total cpu time spent up to now is      139.4 secs

     total energy              =    -108.89991253 Ry
     estimated scf accuracy    <       0.08481696 Ry

     iteration # 22     ecut=    80.00 Ry     beta= 0.70
     Davidson diagonalization with overlap
     ethr =  5.69E-06,  avg # of iterations = 12.0

     negative rho (up, down):  9.295E-06 0.000E+00

     total cpu time spent up to now is      140.3 secs

     total energy              =    -108.90169554 Ry
     estimated scf accuracy    <       0.01387353 Ry

     iteration # 23     ecut=    80.00 Ry     beta= 0.70
     Davidson diagonalization with overlap
     ethr =  5.69E-06,  avg # of iterations =  1.0

     negative rho (up, down):  8.301E-06 0.000E+00

     total cpu time spent up to now is      141.0 secs

     total energy              =    -108.89610721 Ry
     estimated scf accuracy    <       0.01173071 Ry

     iteration # 24     ecut=    80.00 Ry     beta= 0.70
     Davidson diagonalization with overlap
     ethr =  5.69E-06,  avg # of iterations = 15.0

     negative rho (up, down):  7.112E-06 0.000E+00

     total cpu time spent up to now is      142.1 secs

     total energy              =    -108.90700298 Ry
     estimated scf accuracy    <       0.02665973 Ry

     iteration # 25     ecut=    80.00 Ry     beta= 0.70
     Davidson diagonalization with overlap
     ethr =  5.69E-06,  avg # of iterations =  1.0

     negative rho (up, down):  6.888E-06 0.000E+00

     total cpu time spent up to now is      142.8 secs

     total energy              =    -108.90434272 Ry
     estimated scf accuracy    <       0.02547779 Ry

     iteration # 26     ecut=    80.00 Ry     beta= 0.70
     Davidson diagonalization with overlap
     ethr =  5.69E-06,  avg # of iterations =  2.0

     negative rho (up, down):  7.062E-06 0.000E+00

     total cpu time spent up to now is      143.5 secs

     total energy              =    -108.90286314 Ry
     estimated scf accuracy    <       0.01748270 Ry

     iteration # 27     ecut=    80.00 Ry     beta= 0.70
     Davidson diagonalization with overlap
     ethr =  5.69E-06,  avg # of iterations =  2.0

     negative rho (up, down):  7.480E-06 0.000E+00

     total cpu time spent up to now is      144.2 secs

     total energy              =    -108.90133899 Ry
     estimated scf accuracy    <       0.01251348 Ry

     iteration # 28     ecut=    80.00 Ry     beta= 0.70
     Davidson diagonalization with overlap
     ethr =  5.69E-06,  avg # of iterations =  7.0

     negative rho (up, down):  7.170E-06 0.000E+00

     total cpu time spent up to now is      144.9 secs

     total energy              =    -108.90232057 Ry
     estimated scf accuracy    <       0.00345755 Ry

     iteration # 29     ecut=    80.00 Ry     beta= 0.70
     Davidson diagonalization with overlap
     ethr =  5.69E-06,  avg # of iterations =  1.0

     negative rho (up, down):  7.257E-06 0.000E+00

     total cpu time spent up to now is      145.6 secs

     total energy              =    -108.90225202 Ry
     estimated scf accuracy    <       0.00390190 Ry

     iteration # 30     ecut=    80.00 Ry     beta= 0.70
     Davidson diagonalization with overlap
     ethr =  5.69E-06,  avg # of iterations =  1.0

     negative rho (up, down):  9.591E-06 0.000E+00

     total cpu time spent up to now is      146.3 secs

     total energy              =    -108.90027051 Ry
     estimated scf accuracy    <       0.00354018 Ry

     iteration # 31     ecut=    80.00 Ry     beta= 0.70
     Davidson diagonalization with overlap
     ethr =  5.69E-06,  avg # of iterations = 12.0

     negative rho (up, down):  8.162E-06 0.000E+00

     total cpu time spent up to now is      147.3 secs

     total energy              =    -108.89804128 Ry
     estimated scf accuracy    <       0.05603666 Ry

     iteration # 32     ecut=    80.00 Ry     beta= 0.70
     Davidson diagonalization with overlap
     ethr =  5.69E-06,  avg # of iterations = 16.0

     negative rho (up, down):  8.180E-06 0.000E+00

     total cpu time spent up to now is      148.3 secs

     total energy              =    -108.90174757 Ry
     estimated scf accuracy    <       0.00081945 Ry

     iteration # 33     ecut=    80.00 Ry     beta= 0.70
     Davidson diagonalization with overlap
     ethr =  2.56E-06,  avg # of iterations =  1.0

     negative rho (up, down):  8.405E-06 0.000E+00

     total cpu time spent up to now is      149.0 secs

     total energy              =    -108.90182922 Ry
     estimated scf accuracy    <       0.00074600 Ry

     iteration # 34     ecut=    80.00 Ry     beta= 0.70
     Davidson diagonalization with overlap
     ethr =  2.33E-06,  avg # of iterations =  1.0

     negative rho (up, down):  8.129E-06 0.000E+00

     total cpu time spent up to now is      149.6 secs

     total energy              =    -108.90169969 Ry
     estimated scf accuracy    <       0.00082534 Ry

     iteration # 35     ecut=    80.00 Ry     beta= 0.70
     Davidson diagonalization with overlap
     ethr =  2.33E-06,  avg # of iterations =  2.0

     negative rho (up, down):  7.826E-06 0.000E+00

     total cpu time spent up to now is      150.4 secs

     total energy              =    -108.90194085 Ry
     estimated scf accuracy    <       0.00072338 Ry

     iteration # 36     ecut=    80.00 Ry     beta= 0.70
     Davidson diagonalization with overlap
     ethr =  2.26E-06,  avg # of iterations =  7.0

     negative rho (up, down):  8.622E-06 0.000E+00

     total cpu time spent up to now is      151.2 secs

     total energy              =    -108.90194947 Ry
     estimated scf accuracy    <       0.00369820 Ry

     iteration # 37     ecut=    80.00 Ry     beta= 0.70
     Davidson diagonalization with overlap
     ethr =  2.26E-06,  avg # of iterations =  2.0

     negative rho (up, down):  8.733E-06 0.000E+00

     total cpu time spent up to now is      151.9 secs

     total energy              =    -108.90168967 Ry
     estimated scf accuracy    <       0.00257901 Ry

     iteration # 38     ecut=    80.00 Ry     beta= 0.70
     Davidson diagonalization with overlap
     ethr =  2.26E-06,  avg # of iterations =  1.0

     negative rho (up, down):  8.662E-06 0.000E+00

     total cpu time spent up to now is      152.6 secs

     total energy              =    -108.90107335 Ry
     estimated scf accuracy    <       0.00172867 Ry

     iteration # 39     ecut=    80.00 Ry     beta= 0.70
     Davidson diagonalization with overlap
     ethr =  2.26E-06,  avg # of iterations = 10.0

     negative rho (up, down):  8.663E-06 0.000E+00

     total cpu time spent up to now is      153.6 secs

     total energy              =    -108.90166135 Ry
     estimated scf accuracy    <       0.00451913 Ry

     iteration # 40     ecut=    80.00 Ry     beta= 0.70
     Davidson diagonalization with overlap
     ethr =  2.26E-06,  avg # of iterations =  2.0

     negative rho (up, down):  8.452E-06 0.000E+00

     total cpu time spent up to now is      154.3 secs

     total energy              =    -108.90134762 Ry
     estimated scf accuracy    <       0.00318029 Ry

     iteration # 41     ecut=    80.00 Ry     beta= 0.70
     Davidson diagonalization with overlap
     ethr =  2.26E-06,  avg # of iterations =  9.0

     negative rho (up, down):  8.649E-06 0.000E+00

     total cpu time spent up to now is      155.1 secs

     total energy              =    -108.90169415 Ry
     estimated scf accuracy    <       0.00004868 Ry

     iteration # 42     ecut=    80.00 Ry     beta= 0.70
     Davidson diagonalization with overlap
     ethr =  1.52E-07,  avg # of iterations = 15.0

     negative rho (up, down):  8.785E-06 0.000E+00

     total cpu time spent up to now is      156.1 secs

     total energy              =    -108.90172491 Ry
     estimated scf accuracy    <       0.00016876 Ry

     iteration # 43     ecut=    80.00 Ry     beta= 0.70
     Davidson diagonalization with overlap
     ethr =  1.52E-07,  avg # of iterations =  2.0

     negative rho (up, down):  8.761E-06 0.000E+00

     total cpu time spent up to now is      156.8 secs

     total energy              =    -108.90169979 Ry
     estimated scf accuracy    <       0.00017045 Ry

     iteration # 44     ecut=    80.00 Ry     beta= 0.70
     Davidson diagonalization with overlap
     ethr =  1.52E-07,  avg # of iterations =  1.0

     negative rho (up, down):  8.745E-06 0.000E+00

     total cpu time spent up to now is      157.4 secs

     total energy              =    -108.90168638 Ry
     estimated scf accuracy    <       0.00010411 Ry

     iteration # 45     ecut=    80.00 Ry     beta= 0.70
     Davidson diagonalization with overlap
     ethr =  1.52E-07,  avg # of iterations =  2.0

     negative rho (up, down):  8.737E-06 0.000E+00

     total cpu time spent up to now is      158.1 secs

     total energy              =    -108.90168771 Ry
     estimated scf accuracy    <       0.00005656 Ry

     iteration # 46     ecut=    80.00 Ry     beta= 0.70
     Davidson diagonalization with overlap
     ethr =  1.52E-07,  avg # of iterations =  1.0

     negative rho (up, down):  8.736E-06 0.000E+00

     total cpu time spent up to now is      158.7 secs

     total energy              =    -108.90168850 Ry
     estimated scf accuracy    <       0.00004712 Ry

     iteration # 47     ecut=    80.00 Ry     beta= 0.70
     Davidson diagonalization with overlap
     ethr =  1.47E-07,  avg # of iterations =  1.0

     negative rho (up, down):  8.723E-06 0.000E+00

     total cpu time spent up to now is      159.4 secs

     total energy              =    -108.90168460 Ry
     estimated scf accuracy    <       0.00004195 Ry

     iteration # 48     ecut=    80.00 Ry     beta= 0.70
     Davidson diagonalization with overlap
     ethr =  1.31E-07,  avg # of iterations =  1.0

     negative rho (up, down):  8.722E-06 0.000E+00

     total cpu time spent up to now is      160.0 secs

     total energy              =    -108.90168544 Ry
     estimated scf accuracy    <       0.00002633 Ry

     iteration # 49     ecut=    80.00 Ry     beta= 0.70
     Davidson diagonalization with overlap
     ethr =  8.23E-08,  avg # of iterations =  9.0

     negative rho (up, down):  8.705E-06 0.000E+00

     total cpu time spent up to now is      160.8 secs

     total energy              =    -108.90170193 Ry
     estimated scf accuracy    <       0.00000954 Ry

     iteration # 50     ecut=    80.00 Ry     beta= 0.70
     Davidson diagonalization with overlap
     ethr =  2.98E-08,  avg # of iterations = 10.0

     negative rho (up, down):  8.722E-06 0.000E+00

     total cpu time spent up to now is      161.7 secs

     total energy              =    -108.90169481 Ry
     estimated scf accuracy    <       0.00005647 Ry

     iteration # 51     ecut=    80.00 Ry     beta= 0.70
     Davidson diagonalization with overlap
     ethr =  2.98E-08,  avg # of iterations =  2.0

     negative rho (up, down):  8.709E-06 0.000E+00

     total cpu time spent up to now is      162.4 secs

     total energy              =    -108.90170051 Ry
     estimated scf accuracy    <       0.00002885 Ry

     iteration # 52     ecut=    80.00 Ry     beta= 0.70
     Davidson diagonalization with overlap
     ethr =  2.98E-08,  avg # of iterations =  1.0

     negative rho (up, down):  8.703E-06 0.000E+00

     total cpu time spent up to now is      163.1 secs

     total energy              =    -108.90170068 Ry
     estimated scf accuracy    <       0.00003926 Ry

     iteration # 53     ecut=    80.00 Ry     beta= 0.70
     Davidson diagonalization with overlap
     ethr =  2.98E-08,  avg # of iterations =  1.0

     negative rho (up, down):  8.712E-06 0.000E+00

     total cpu time spent up to now is      163.7 secs

     total energy              =    -108.90169803 Ry
     estimated scf accuracy    <       0.00004014 Ry

     iteration # 54     ecut=    80.00 Ry     beta= 0.70
     Davidson diagonalization with overlap
     ethr =  2.98E-08,  avg # of iterations =  1.0

     negative rho (up, down):  8.695E-06 0.000E+00

     total cpu time spent up to now is      164.4 secs

     total energy              =    -108.90169862 Ry
     estimated scf accuracy    <       0.00003414 Ry

     iteration # 55     ecut=    80.00 Ry     beta= 0.70
     Davidson diagonalization with overlap
     ethr =  2.98E-08,  avg # of iterations =  1.0

     negative rho (up, down):  8.702E-06 0.000E+00

     total cpu time spent up to now is      165.2 secs

     total energy              =    -108.90169135 Ry
     estimated scf accuracy    <       0.00003561 Ry

     iteration # 56     ecut=    80.00 Ry     beta= 0.70
     Davidson diagonalization with overlap
     ethr =  2.98E-08,  avg # of iterations =  8.0

     negative rho (up, down):  8.671E-06 0.000E+00

     total cpu time spent up to now is      166.3 secs

     total energy              =    -108.90169618 Ry
     estimated scf accuracy    <       0.00000030 Ry

     iteration # 57     ecut=    80.00 Ry     beta= 0.70
     Davidson diagonalization with overlap
     ethr =  9.53E-10,  avg # of iterations = 14.0

     negative rho (up, down):  8.751E-06 0.000E+00

     total cpu time spent up to now is      167.6 secs

     total energy              =    -108.90169236 Ry
     estimated scf accuracy    <       0.00001791 Ry

     iteration # 58     ecut=    80.00 Ry     beta= 0.70
     Davidson diagonalization with overlap
     ethr =  9.53E-10,  avg # of iterations = 18.0

     negative rho (up, down):  8.711E-06 0.000E+00

     total cpu time spent up to now is      168.9 secs

     total energy              =    -108.90169492 Ry
     estimated scf accuracy    <       0.00000839 Ry

     iteration # 59     ecut=    80.00 Ry     beta= 0.70
     Davidson diagonalization with overlap
     ethr =  9.53E-10,  avg # of iterations = 17.0

     negative rho (up, down):  8.723E-06 0.000E+00

     total cpu time spent up to now is      170.1 secs

     total energy              =    -108.90169632 Ry
     estimated scf accuracy    <       0.00000091 Ry

     iteration # 60     ecut=    80.00 Ry     beta= 0.70
     Davidson diagonalization with overlap
     ethr =  9.53E-10,  avg # of iterations =  1.0

     negative rho (up, down):  8.735E-06 0.000E+00

     total cpu time spent up to now is      170.7 secs

     total energy              =    -108.90169619 Ry
     estimated scf accuracy    <       0.00000088 Ry

     iteration # 61     ecut=    80.00 Ry     beta= 0.70
     Davidson diagonalization with overlap
     ethr =  9.53E-10,  avg # of iterations =  2.0

     negative rho (up, down):  8.736E-06 0.000E+00

     total cpu time spent up to now is      171.4 secs

     total energy              =    -108.90169615 Ry
     estimated scf accuracy    <       0.00000051 Ry

     iteration # 62     ecut=    80.00 Ry     beta= 0.70
     Davidson diagonalization with overlap
     ethr =  9.53E-10,  avg # of iterations =  9.0

     negative rho (up, down):  8.731E-06 0.000E+00

     total cpu time spent up to now is      172.1 secs

     End of self-consistent calculation

          k = 0.0000 0.0000 0.0000 (  9328 PWs)   bands (ev):

   -20.9951 -19.4731 -15.4723 -14.2688 -12.1767 -11.2097  -9.5857  -8.3290
    -7.4197  -7.1628  -4.9092  -4.7692  -4.4149  -3.1940  -2.3593  -0.4837

     highest occupied level (ev):    -0.4837

!    total energy              =    -108.90169623 Ry
     estimated scf accuracy    <          4.3E-09 Ry

     The total energy is the sum of the following terms:
     one-electron contribution =    -340.74313539 Ry
     hartree contribution      =     178.96566098 Ry
     xc contribution           =     -36.74322464 Ry
     ewald contribution        =      89.61900282 Ry

     convergence has been achieved in  62 iterations

     negative rho (up, down):  8.731E-06 0.000E+00

     Forces acting on atoms (cartesian axes, Ry/au):

     atom    1 type  1   force =     0.00269560   -0.03613069    0.00000000
     atom    2 type  1   force =     0.00252273   -0.03436262    0.00000000
     atom    3 type  1   force =    -0.00180247    0.05341037    0.00000000
     atom    4 type  1   force =    -0.00180381    0.05342972    0.00000000
     atom    5 type  2   force =     0.01072872    0.06811728    0.00000000
     atom    6 type  2   force =     0.01232997    0.06759069    0.00000000
     atom    7 type  2   force =    -0.01176805   -0.08631051    0.00000000
     atom    8 type  2   force =    -0.01290269   -0.08574425    0.00000000
     The non-local contrib.  to forces
     atom    1 type  1   force =     0.23667585    0.01897975    0.00000000
     atom    2 type  1   force =     0.23655428    0.02019240    0.00000000
     atom    3 type  1   force =    -0.23721430    0.00756501    0.00000000
     atom    4 type  1   force =    -0.23725751    0.00704013    0.00000000
     atom    5 type  2   force =     0.58525267    0.01923614    0.00000000
     atom    6 type  2   force =     0.58452820    0.01892913    0.00000000
     atom    7 type  2   force =    -0.58449976   -0.01492669    0.00000000
     atom    8 type  2   force =    -0.58494208   -0.01446339    0.00000000
     The ionic contribution  to forces
     atom    1 type  1   force =    -2.33281894    0.13713344   -0.00000000
     atom    2 type  1   force =    -2.33365698    0.14690467   -0.00000000
     atom    3 type  1   force =     2.33237571   -0.01304510   -0.00000000
     atom    4 type  1   force =     2.33129252   -0.01184855   -0.00000000
     atom    5 type  2   force =    -2.91916575   -0.11718196   -0.00000000
     atom    6 type  2   force =    -2.90380887   -0.11751376   -0.00000000
     atom    7 type  2   force =     2.91764409   -0.01322852   -0.00000000
     atom    8 type  2   force =     2.90813823   -0.01122021   -0.00000000
     The local contribution  to forces
     atom    1 type  1   force =     2.10245062   -0.19009499    0.00000062
     atom    2 type  1   force =     2.10323273   -0.19925163    0.00000325
     atom    3 type  1   force =    -2.10064238    0.05831482   -0.00000035
     atom    4 type  1   force =    -2.09953039    0.05767470    0.00000079
     atom    5 type  2   force =     2.37282815    0.16513860   -0.00004916
     atom    6 type  2   force =     2.35981325    0.16520109    0.00000143
     atom    7 type  2   force =    -2.37303295   -0.05801648   -0.00002628
     atom    8 type  2   force =    -2.36430337   -0.05990648    0.00000510
     The core correction contribution to forces
     atom    1 type  1   force =    -0.00360269   -0.00209059    0.00000009
     atom    2 type  1   force =    -0.00359385   -0.00217871    0.00000003
     atom    3 type  1   force =     0.00369520    0.00061380    0.00000008
     atom    4 type  1   force =     0.00370149    0.00062576    0.00000018
     atom    5 type  2   force =    -0.02815322    0.00101007   -0.00000169
[...]

     highest occupied level (ev):    -1.2157

!    total energy              =    -108.94215219 Ry
     estimated scf accuracy    <          6.0E-09 Ry

     The total energy is the sum of the following terms:
     one-electron contribution =    -346.45311786 Ry
     hartree contribution      =     181.40686963 Ry
     xc contribution           =     -36.75072189 Ry
     ewald contribution        =      92.85481793 Ry

     convergence has been achieved in   9 iterations

     negative rho (up, down):  5.256E-06 0.000E+00

     Forces acting on atoms (cartesian axes, Ry/au):

     atom    1 type  1   force =     0.00024901    0.00035977    0.00000000
     atom    2 type  1   force =     0.00055660   -0.00029153    0.00000000
     atom    3 type  1   force =    -0.00028642    0.00033583    0.00000000
     atom    4 type  1   force =    -0.00041480    0.00032745    0.00000000
     atom    5 type  2   force =    -0.00008519   -0.00025638    0.00000000
     atom    6 type  2   force =    -0.00055536    0.00060181    0.00000000
     atom    7 type  2   force =     0.00016295   -0.00042779    0.00000000
     atom    8 type  2   force =     0.00037321   -0.00064915    0.00000000
     The non-local contrib.  to forces
     atom    1 type  1   force =     0.29923271    0.11924787    0.00000000
     atom    2 type  1   force =     0.29968934    0.11875899    0.00000000
     atom    3 type  1   force =    -0.29936978   -0.11864268    0.00000000
     atom    4 type  1   force =    -0.29952462   -0.11853617    0.00000000
     atom    5 type  2   force =     0.65194315   -0.11016194    0.00000000
     atom    6 type  2   force =     0.65211094   -0.10959625    0.00000000
     atom    7 type  2   force =    -0.65208211    0.11007603    0.00000000
     atom    8 type  2   force =    -0.65207254    0.10977555    0.00000000
     The ionic contribution  to forces
     atom    1 type  1   force =    -2.21670119    0.61681553   -0.00000000
     atom    2 type  1   force =    -2.21432303    0.61382803    0.00000000
     atom    3 type  1   force =     2.21546477   -0.61287698    0.00000000
     atom    4 type  1   force =     2.21530234   -0.61316490   -0.00000000
     atom    5 type  2   force =    -3.52928847   -0.07136203   -0.00000000
     atom    6 type  2   force =    -3.53324080   -0.06704970    0.00000000
     atom    7 type  2   force =     3.53020712    0.06617016   -0.00000000
     atom    8 type  2   force =     3.53257924    0.06763989    0.00000000
     The local contribution  to forces
     atom    1 type  1   force =     1.92364831   -0.72723103   -0.00000403
     atom    2 type  1   force =     1.92114196   -0.72448186   -0.00000152
     atom    3 type  1   force =    -1.92234276    0.72352522   -0.00000284
     atom    4 type  1   force =    -1.92216236    0.72366994   -0.00001534
     atom    5 type  2   force =     2.90366777    0.17310575    0.00000807
     atom    6 type  2   force =     2.90697713    0.16907123   -0.00000271
     atom    7 type  2   force =    -2.90432988   -0.16863785   -0.00000198
     atom    8 type  2   force =    -2.90652266   -0.17001141   -0.00001594
     The core correction contribution to forces
     atom    1 type  1   force =    -0.00593482   -0.00850212   -0.00000027
     atom    2 type  1   force =    -0.00596388   -0.00846952    0.00000013
     atom    3 type  1   force =     0.00600342    0.00829620    0.00000001
     atom    4 type  1   force =     0.00600876    0.00829403   -0.00000036
     atom    5 type  2   force =    -0.02644748    0.00815009    0.00000032
     atom    6 type  2   force =    -0.02642969    0.00810482   -0.00000014
     atom    7 type  2   force =     0.02644016   -0.00811138    0.00000010
     atom    8 type  2   force =     0.02642727   -0.00810187   -0.00000018
     The Hubbard contrib.    to forces
     atom    1 type  1   force =     0.00000000    0.00000000    0.00000000
     atom    2 type  1   force =     0.00000000    0.00000000    0.00000000
     atom    3 type  1   force =     0.00000000    0.00000000    0.00000000
     atom    4 type  1   force =     0.00000000    0.00000000    0.00000000
     atom    5 type  2   force =     0.00000000    0.00000000    0.00000000
     atom    6 type  2   force =     0.00000000    0.00000000    0.00000000
     atom    7 type  2   force =     0.00000000    0.00000000    0.00000000
     atom    8 type  2   force =     0.00000000    0.00000000    0.00000000
     The SCF correction term to forces
     atom    1 type  1   force =     0.00001932   -0.00002069    0.00000257
     atom    2 type  1   force =     0.00002753    0.00002260    0.00000158
     atom    3 type  1   force =    -0.00002675   -0.00001615    0.00000499
     atom    4 type  1   force =    -0.00002360    0.00001433    0.00000740
     atom    5 type  2   force =     0.00005515   -0.00003847   -0.00000306
     atom    6 type  2   force =     0.00004237    0.00002150    0.00001040
     atom    7 type  2   force =    -0.00005703    0.00002503    0.00001272
     atom    8 type  2   force =    -0.00002278   -0.00000153    0.00002736

     Total force =     0.001604     Total SCF correction =     0.000127


     Computing stress (Cartesian axis) and pressure


     negative rho (up, down):  5.256E-06 0.000E+00
          total   stress  (Ry/bohr**3)                   (kbar)     P=       -0.18
  -0.00000080  -0.00000099   0.00000000           -0.12       -0.15        0.00
  -0.00000099  -0.00000156   0.00000000           -0.15       -0.23        0.00
   0.00000000   0.00000000  -0.00000133            0.00        0.00       -0.20

     Energy error            =      7.8E-06 Ry
     Gradient error          =      6.5E-04 Ry/Bohr
     Cell gradient error     =      3.3E-01 kbar

     bfgs converged in  16 scf cycles and  15 bfgs steps
     (criteria: energy <  1.0E-04 Ry, force <  1.0E-03 Ry/Bohr, cell <  5.0E-01 kbar)

     End of BFGS Geometry Optimization

     Final enthalpy           =    -108.9410867269 Ry

     File ./outdir/b2n2.bfgs deleted, as requested
Begin final coordinates
     new unit-cell volume =   1567.35741 a.u.^3 (   232.25841 Ang^3 )
     density =      0.70974 g/cm^3

CELL_PARAMETERS (bohr)
   8.426106137   0.151274793   0.000000000
   0.153378826   9.846088182   0.000000000
   0.000000000   0.000000000  18.897261370

ATOMIC_POSITIONS (crystal)
B             0.1887785362        0.3844293387        0.0000000000
B             0.1887609079        0.8844669763        0.0000000000
B             0.8134045509        0.3646486129        0.0000000000
B             0.8134141653        0.8646450600        0.0000000000
N             0.3444405684        0.1436928446        0.0000000000
N             0.3444703194        0.6436369863        0.0000000000
N             0.6577469077        0.1054825510        0.0000000000
N             0.6577367793        0.6054895278        0.0000000000
End final coordinates



     Writing config-only to output data dir ./outdir/b2n2.save/

     Final scf calculation at the relaxed structure.
     The G-vectors are recalculated for the final unit cell
     Results may differ from those at the preceding step.

     G-vector sticks info
     --------------------
     sticks:   dense  smooth     PW     G-vecs:    dense   smooth      PW
     Sum        2111    2111    525               151421   151421   18877

     Using Slab Decomposition



     bravais-lattice index     =            0
     lattice parameter (alat)  =       8.6360  a.u.
     unit-cell volume          =    1567.3574 (a.u.)^3
     number of atoms/cell      =            8
     number of atomic types    =            2
     number of electrons       =        32.00
     number of Kohn-Sham states=           16
     kinetic-energy cutoff     =      80.0000  Ry
     charge density cutoff     =     320.0000  Ry
     scf convergence threshold =      1.0E-07
     mixing beta               =       0.7000
     number of iterations used =            8  plain     mixing
     press convergence thresh. =      5.0E-01
     Exchange-correlation= PBE
                           (   1   4   3   4   0   0   0)

     celldm(1)=   8.636048  celldm(2)=   0.000000  celldm(3)=   0.000000
     celldm(4)=   0.000000  celldm(5)=   0.000000  celldm(6)=   0.000000

     crystal axes: (cart. coord. in units of alat)
               a(1) = (   0.975690   0.017517   0.000000 )  
               a(2) = (   0.017760   1.140115   0.000000 )  
               a(3) = (   0.000000   0.000000   2.188184 )  

     reciprocal axes: (cart. coord. in units 2 pi/alat)
               b(1) = (  1.025202 -0.015970  0.000000 )  
               b(2) = ( -0.015751  0.877350  0.000000 )  
               b(3) = (  0.000000  0.000000  0.457000 )  


     PseudoPot. # 1 for B  read from file:
     ../B_pbe_v1.01.uspp.F.UPF
     MD5 check sum: d081ebb89d0c768e112975f650467a00
     Pseudo is Ultrasoft + core correction, Zval =  3.0
     Generated by new atomic code, or converted to UPF format
     Using radial grid of  781 points,  4 beta functions with: 
                l(1) =   0
                l(2) =   0
                l(3) =   1
                l(4) =   1
     Q(r) pseudized with  8 coefficients,  rinner =    1.100   1.100   1.100


     PseudoPot. # 2 for N  read from file:
     ../N.oncvpsp.upf
     MD5 check sum: 563d65bfb082928f0c9eb97172f6c357
     Pseudo is Norm-conserving + core correction, Zval =  5.0
     Generated using ONCVPSP code by D. R. Hamann
     Using radial grid of 1058 points,  4 beta functions with: 
                l(1) =   0
                l(2) =   0
                l(3) =   1
                l(4) =   1

     atomic species   valence    mass     pseudopotential
        B              3.00    10.81100     B ( 1.00)
        N              5.00    14.00670     N ( 1.00)

      2 Sym. Ops. (no inversion) found



   Cartesian axes

     site n.     atom                  positions (alat units)
         1           B   tau(   1) = (   0.1910169   0.4416004   0.0000000  )
         2           B   tau(   2) = (   0.1998805   1.0117005   0.0000000  )
         3           B   tau(   3) = (   0.8001070   0.4299895   0.0000000  )
         4           B   tau(   4) = (   0.8089964   1.0000431   0.0000000  )
         5           N   tau(   5) = (   0.3386192   0.1698598   0.0000000  )
         6           N   tau(   6) = (   0.3475274   0.7398541   0.0000000  )
         7           N   tau(   7) = (   0.6436305   0.1317838   0.0000000  )
         8           N   tau(   8) = (   0.6525009   0.7018490   0.0000000  )

     number of k points=     1
                       cart. coord. in units 2pi/alat
        k(    1) = (   0.0000000   0.0000000   0.0000000), wk =   2.0000000

     Dense  grid:    75711 G-vectors     FFT dimensions: (  48,  60, 108)

     Estimated max dynamical RAM per process >     131.29 MB

     Check: negative core charge=   -0.000004

     Initial potential from superposition of free atoms

     starting charge      31.9988, renormalised to      32.0000

     negative rho (up, down):  9.966E-08 0.000E+00
     Starting wfcs are   32 randomized atomic wfcs

     total cpu time spent up to now is      496.5 secs

     Self-consistent Calculation

     iteration #  1     ecut=    80.00 Ry     beta= 0.70
     Davidson diagonalization with overlap
     ethr =  1.00E-06,  avg # of iterations = 14.0

     negative rho (up, down):  4.615E-07 0.000E+00

     total cpu time spent up to now is      498.9 secs

     total energy              =    -108.68468957 Ry
     estimated scf accuracy    <       1.07898339 Ry

     iteration #  2     ecut=    80.00 Ry     beta= 0.70
     Davidson diagonalization with overlap
     ethr =  3.37E-03,  avg # of iterations =  6.0

     negative rho (up, down):  1.043E-06 0.000E+00

     total cpu time spent up to now is      499.8 secs

     total energy              =    -108.77149750 Ry
     estimated scf accuracy    <       0.62508704 Ry

     iteration #  3     ecut=    80.00 Ry     beta= 0.70
     Davidson diagonalization with overlap
     ethr =  1.95E-03,  avg # of iterations =  7.0

     negative rho (up, down):  3.743E-06 0.000E+00

     total cpu time spent up to now is      500.6 secs

     total energy              =    -108.92574744 Ry
     estimated scf accuracy    <       0.09437079 Ry

     iteration #  4     ecut=    80.00 Ry     beta= 0.70
     Davidson diagonalization with overlap
     ethr =  2.95E-04,  avg # of iterations =  6.0

     negative rho (up, down):  5.426E-06 0.000E+00

     total cpu time spent up to now is      501.5 secs

     total energy              =    -108.93972673 Ry
     estimated scf accuracy    <       0.00330977 Ry

     iteration #  5     ecut=    80.00 Ry     beta= 0.70
     Davidson diagonalization with overlap
     ethr =  1.03E-05,  avg # of iterations =  6.0

     negative rho (up, down):  5.546E-06 0.000E+00

     total cpu time spent up to now is      502.5 secs

     total energy              =    -108.94216857 Ry
     estimated scf accuracy    <       0.00031952 Ry

     iteration #  6     ecut=    80.00 Ry     beta= 0.70
     Davidson diagonalization with overlap
     ethr =  9.98E-07,  avg # of iterations =  7.0

     negative rho (up, down):  5.255E-06 0.000E+00

     total cpu time spent up to now is      503.4 secs

     total energy              =    -108.94224393 Ry
     estimated scf accuracy    <       0.00004312 Ry

     iteration #  7     ecut=    80.00 Ry     beta= 0.70
     Davidson diagonalization with overlap
     ethr =  1.35E-07,  avg # of iterations =  8.0

     negative rho (up, down):  5.143E-06 0.000E+00

     total cpu time spent up to now is      504.4 secs

     total energy              =    -108.94226884 Ry
     estimated scf accuracy    <       0.00003510 Ry

     iteration #  8     ecut=    80.00 Ry     beta= 0.70
     Davidson diagonalization with overlap
     ethr =  1.10E-07,  avg # of iterations =  2.0

     negative rho (up, down):  4.983E-06 0.000E+00

     total cpu time spent up to now is      505.1 secs

     total energy              =    -108.94226744 Ry
     estimated scf accuracy    <       0.00000882 Ry

     iteration #  9     ecut=    80.00 Ry     beta= 0.70
     Davidson diagonalization with overlap
     ethr =  2.76E-08,  avg # of iterations =  7.0

     negative rho (up, down):  4.908E-06 0.000E+00

     total cpu time spent up to now is      506.1 secs

     total energy              =    -108.94227075 Ry
     estimated scf accuracy    <       0.00000845 Ry

     iteration # 10     ecut=    80.00 Ry     beta= 0.70
     Davidson diagonalization with overlap
     ethr =  2.64E-08,  avg # of iterations =  6.0

     negative rho (up, down):  4.869E-06 0.000E+00

     total cpu time spent up to now is      506.9 secs

     total energy              =    -108.94227233 Ry
     estimated scf accuracy    <       0.00000010 Ry

     iteration # 11     ecut=    80.00 Ry     beta= 0.70
     Davidson diagonalization with overlap
     ethr =  3.17E-10,  avg # of iterations =  7.0

     negative rho (up, down):  4.810E-06 0.000E+00

     total cpu time spent up to now is      508.1 secs

     End of self-consistent calculation

          k = 0.0000 0.0000 0.0000 (  9439 PWs)   bands (ev):

   -21.8779 -20.4882 -15.4573 -14.5221 -12.3464 -11.6413 -10.2647  -8.0560
    -7.9112  -7.6060  -5.5426  -4.9593  -4.6463  -3.1171  -2.2759  -1.2157

     highest occupied level (ev):    -1.2157

!    total energy              =    -108.94227248 Ry
     estimated scf accuracy    <       0.00000002 Ry

     The total energy is the sum of the following terms:
     one-electron contribution =    -346.45400516 Ry
     hartree contribution      =     181.40793795 Ry
     xc contribution           =     -36.75102319 Ry
     ewald contribution        =      92.85481793 Ry

     convergence has been achieved in  11 iterations

     negative rho (up, down):  4.810E-06 0.000E+00

     Forces acting on atoms (cartesian axes, Ry/au):

     atom    1 type  1   force =     0.00015553    0.00034435    0.00000000
     atom    2 type  1   force =     0.00046198   -0.00031648    0.00000000
     atom    3 type  1   force =    -0.00021504    0.00044180    0.00000000
     atom    4 type  1   force =    -0.00035197    0.00040983    0.00000000
     atom    5 type  2   force =    -0.00007221   -0.00029390    0.00000000
     atom    6 type  2   force =    -0.00052754    0.00056561    0.00000000
     atom    7 type  2   force =     0.00017666   -0.00048249    0.00000000
     atom    8 type  2   force =     0.00037259   -0.00066871    0.00000000
     The non-local contrib.  to forces
     atom    1 type  1   force =     0.29925979    0.11927600    0.00000000
     atom    2 type  1   force =     0.29969935    0.11879058    0.00000000
     atom    3 type  1   force =    -0.29939674   -0.11857576    0.00000000
     atom    4 type  1   force =    -0.29955577   -0.11849783    0.00000000
     atom    5 type  2   force =     0.65192816   -0.11013896    0.00000000
     atom    6 type  2   force =     0.65212638   -0.10955250    0.00000000
     atom    7 type  2   force =    -0.65206455    0.11009515    0.00000000
     atom    8 type  2   force =    -0.65210314    0.10978181    0.00000000
     The ionic contribution  to forces
     atom    1 type  1   force =    -2.21670119    0.61681553   -0.00000000
     atom    2 type  1   force =    -2.21432303    0.61382803   -0.00000000
     atom    3 type  1   force =     2.21546477   -0.61287698   -0.00000000
     atom    4 type  1   force =     2.21530234   -0.61316490   -0.00000000
     atom    5 type  2   force =    -3.52928847   -0.07136203   -0.00000000
     atom    6 type  2   force =    -3.53324080   -0.06704970   -0.00000000
     atom    7 type  2   force =     3.53020712    0.06617016   -0.00000000
     atom    8 type  2   force =     3.53257924    0.06763989   -0.00000000
     The local contribution  to forces
     atom    1 type  1   force =     1.92366826   -0.72723718    0.00000318
     atom    2 type  1   force =     1.92118285   -0.72455892   -0.00000607
     atom    3 type  1   force =    -1.92236255    0.72351288   -0.00000175
     atom    4 type  1   force =    -1.92219303    0.72361814    0.00000298
     atom    5 type  2   force =     2.90367540    0.17308509   -0.00002153
     atom    6 type  2   force =     2.90697626    0.16897846    0.00004086
     atom    7 type  2   force =    -2.90433540   -0.16858963   -0.00000141
     atom    8 type  2   force =    -2.90653116   -0.16992876   -0.00000522
     The core correction contribution to forces
     atom    1 type  1   force =    -0.00608279   -0.00845258    0.00000007
     atom    2 type  1   force =    -0.00611037   -0.00842128   -0.00000021
     atom    3 type  1   force =     0.00609101    0.00841757   -0.00000023
     atom    4 type  1   force =     0.00609622    0.00841664    0.00000023
     atom    5 type  2   force =    -0.02645403    0.00814343   -0.00000068
     atom    6 type  2   force =    -0.02643749    0.00809713    0.00000035
     atom    7 type  2   force =     0.02644821   -0.00811108    0.00000042
     atom    8 type  2   force =     0.02643738   -0.00810021   -0.00000035
     The Hubbard contrib.    to forces
     atom    1 type  1   force =     0.00000000    0.00000000    0.00000000
     atom    2 type  1   force =     0.00000000    0.00000000    0.00000000
     atom    3 type  1   force =     0.00000000    0.00000000    0.00000000
     atom    4 type  1   force =     0.00000000    0.00000000    0.00000000
     atom    5 type  2   force =     0.00000000    0.00000000    0.00000000
     atom    6 type  2   force =     0.00000000    0.00000000    0.00000000
     atom    7 type  2   force =     0.00000000    0.00000000    0.00000000
     atom    8 type  2   force =     0.00000000    0.00000000    0.00000000
     The SCF correction term to forces
     atom    1 type  1   force =     0.00000986   -0.00005446   -0.00000110
     atom    2 type  1   force =     0.00001157    0.00004807    0.00000413
