
     Program PWSCF v.7.2 starts on 27Apr2023 at 23: 1:17 

     This program is part of the open-source Quantum ESPRESSO suite
     for quantum simulation of materials; please cite
         "P. Giannozzi et al., J. Phys.:Condens. Matter 21 395502 (2009);
         "P. Giannozzi et al., J. Phys.:Condens. Matter 29 465901 (2017);
         "P. Giannozzi et al., J. Chem. Phys. 152 154105 (2020);
          URL http://www.quantum-espresso.org", 
     in publications or presentations arising from this work. More details at
     http://www.quantum-espresso.org/quote

     Parallel version (MPI), running on     1 processors

     MPI processes distributed on     1 nodes
     402 MiB available memory on the printing compute node when the environment starts

     Waiting for input...
     Reading input from standard input

     Current dimensions of program PWSCF are:
     Max number of different atomic species (ntypx) = 10
     Max number of k-points (npk) =  40000
     Max angular momentum in pseudopotentials (lmaxx) =  4
     file C.pbe-n-kjpaw_psl.1.0.0.UPF: wavefunction(s)  2S 2P renormalized

     Subspace diagonalization in iterative solution of the eigenvalue problem:
     a serial algorithm will be used


     G-vector sticks info
     --------------------
     sticks:   dense  smooth     PW     G-vecs:    dense   smooth      PW
     Sum         475     475    151                51311    51311    8639

     Using Slab Decomposition



     bravais-lattice index     =            4
     lattice parameter (alat)  =       4.6561  a.u.
     unit-cell volume          =     532.1899 (a.u.)^3
     number of atoms/cell      =            2
     number of atomic types    =            1
     number of electrons       =         8.00
     number of Kohn-Sham states=            8
     kinetic-energy cutoff     =      80.0000  Ry
     charge density cutoff     =     320.0000  Ry
     scf convergence threshold =      1.0E-06
     mixing beta               =       0.7000
     number of iterations used =            8  plain     mixing
     Exchange-correlation= SLA  PW   PBX  PBC
                           (   1   4   3   4   0   0   0)

     celldm(1)=   4.656107  celldm(2)=   0.000000  celldm(3)=   6.087896
     celldm(4)=   0.000000  celldm(5)=   0.000000  celldm(6)=   0.000000

     crystal axes: (cart. coord. in units of alat)
               a(1) = (   1.000000   0.000000   0.000000 )  
               a(2) = (  -0.500000   0.866025   0.000000 )  
               a(3) = (   0.000000   0.000000   6.087896 )  

     reciprocal axes: (cart. coord. in units 2 pi/alat)
               b(1) = (  1.000000  0.577350 -0.000000 )  
               b(2) = (  0.000000  1.154701  0.000000 )  
               b(3) = (  0.000000 -0.000000  0.164260 )  


     PseudoPot. # 1 for C  read from file:
     ../../C.pbe-n-kjpaw_psl.1.0.0.UPF
     MD5 check sum: 5f16ad9a65e90284d1d834d4ab3b0f7d
     Pseudo is Projector augmented-wave + core cor, Zval =  4.0
     Generated using &quot;atomic&quot; code by A. Dal Corso  v.6.3
     Shape of augmentation charge: PSQ
     Using radial grid of 1073 points,  4 beta functions with: 
                l(1) =   0
                l(2) =   0
                l(3) =   1
                l(4) =   1
     Q(r) pseudized with 0 coefficients 


     atomic species   valence    mass     pseudopotential
        C              4.00    12.01070     C ( 1.00)

     24 Sym. Ops., with inversion, found



   Cartesian axes

     site n.     atom                  positions (alat units)
         1           C   tau(   1) = (   0.0000000   0.5773503   3.0439478  )
         2           C   tau(   2) = (   0.5000000   0.2886751   3.0439478  )

     number of k points=    19  Marzari-Vanderbilt smearing, width (Ry)=  0.0200
                       cart. coord. in units 2pi/alat
        k(    1) = (   0.0000000   0.0000000   0.0000000), wk =   0.0138889
        k(    2) = (   0.0000000   0.0962250   0.0000000), wk =   0.0833333
        k(    3) = (   0.0000000   0.1924501   0.0000000), wk =   0.0833333
        k(    4) = (   0.0000000   0.2886751   0.0000000), wk =   0.0833333
        k(    5) = (   0.0000000   0.3849002   0.0000000), wk =   0.0833333
        k(    6) = (   0.0000000   0.4811252   0.0000000), wk =   0.0833333
        k(    7) = (   0.0000000  -0.5773503   0.0000000), wk =   0.0416667
        k(    8) = (   0.0833333   0.1443376   0.0000000), wk =   0.0833333
        k(    9) = (   0.0833333   0.2405626   0.0000000), wk =   0.1666667
        k(   10) = (   0.0833333   0.3367877   0.0000000), wk =   0.1666667
        k(   11) = (   0.0833333   0.4330127   0.0000000), wk =   0.1666667
        k(   12) = (   0.0833333   0.5292377   0.0000000), wk =   0.1666667
        k(   13) = (   0.1666667   0.2886751   0.0000000), wk =   0.0833333
        k(   14) = (   0.1666667   0.3849002   0.0000000), wk =   0.1666667
        k(   15) = (   0.1666667   0.4811252   0.0000000), wk =   0.1666667
        k(   16) = (   0.1666667   0.5773503   0.0000000), wk =   0.0833333
        k(   17) = (   0.2500000   0.4330127   0.0000000), wk =   0.0833333
        k(   18) = (   0.2500000   0.5292377   0.0000000), wk =   0.1666667
        k(   19) = (   0.3333333   0.5773503   0.0000000), wk =   0.0277778

     Dense  grid:    51311 G-vectors     FFT dimensions: (  27,  27, 162)

     Estimated max dynamical RAM per process >      82.36 MB
 ----2D----2D----2D----2D----2D----2D----2D----2D----2D----2D----2D----2D
  The code is running with the 2D cutoff
  Please refer to:
  Sohier, T., Calandra, M., & Mauri, F. (2017), 
  Density functional perturbation theory for gated two-dimensional heterostructures:
  Theoretical developments and application to flexural phonons in graphene.
  Physical Review B, 96(7), 75448. https://doi.org/10.1103/PhysRevB.96.075448
 ----2D----2D----2D----2D----2D----2D----2D----2D----2D----2D----2D----2D

     Check: negative core charge=   -0.000005

     Initial potential from superposition of free atoms

     starting charge       7.9999, renormalised to       8.0000

     negative rho (up, down):  2.427E-05 0.000E+00
     Starting wfcs are    8 randomized atomic wfcs
     Checking if some PAW data can be deallocated... 

     total cpu time spent up to now is        2.1 secs

     Self-consistent Calculation

     iteration #  1     ecut=    80.00 Ry     beta= 0.70
     Davidson diagonalization with overlap
     ethr =  1.00E-02,  avg # of iterations =  6.5

     negative rho (up, down):  7.573E-05 0.000E+00

     total cpu time spent up to now is        7.0 secs

     total energy              =     -36.86183821 Ry
     estimated scf accuracy    <       0.19095124 Ry

     iteration #  2     ecut=    80.00 Ry     beta= 0.70
     Davidson diagonalization with overlap
     ethr =  2.39E-03,  avg # of iterations =  3.8

     negative rho (up, down):  1.079E-04 0.000E+00

     total cpu time spent up to now is       10.8 secs

     total energy              =     -36.88732501 Ry
     estimated scf accuracy    <       0.00193977 Ry

     iteration #  3     ecut=    80.00 Ry     beta= 0.70
     Davidson diagonalization with overlap
     ethr =  2.42E-05,  avg # of iterations =  9.9

     negative rho (up, down):  1.286E-04 0.000E+00

     total cpu time spent up to now is       16.7 secs

     total energy              =     -36.88767072 Ry
     estimated scf accuracy    <       0.00015626 Ry

     iteration #  4     ecut=    80.00 Ry     beta= 0.70
     Davidson diagonalization with overlap
     ethr =  1.95E-06,  avg # of iterations =  4.5

     negative rho (up, down):  1.303E-04 0.000E+00

     total cpu time spent up to now is       20.4 secs

     total energy              =     -36.88768597 Ry
     estimated scf accuracy    <       0.00000245 Ry

     iteration #  5     ecut=    80.00 Ry     beta= 0.70
     Davidson diagonalization with overlap
     ethr =  3.06E-08,  avg # of iterations =  2.9

     negative rho (up, down):  1.302E-04 0.000E+00

     total cpu time spent up to now is       23.8 secs

     End of self-consistent calculation

          k = 0.0000 0.0000 0.0000 (  6489 PWs)   bands (ev):

   -23.7804 -11.8724  -7.2841  -7.2841  -1.0292  -0.2278   1.3392   2.3026

          k = 0.0000 0.0962 0.0000 (  6493 PWs)   bands (ev):

   -23.6162 -11.6760  -7.9357  -7.6235  -0.8059  -0.0022   1.5636   2.5252

          k = 0.0000 0.1925 0.0000 (  6481 PWs)   bands (ev):

   -23.1256 -11.0920  -9.5763  -8.4184  -0.1361   0.6732   2.2358   3.1893

          k = 0.0000 0.2887 0.0000 (  6429 PWs)   bands (ev):

   -22.3142 -11.6783 -10.1398  -9.3008   0.9781   1.7824   3.0390   3.3390

          k = 0.0000 0.3849 0.0000 (  6414 PWs)   bands (ev):

   -21.1941 -13.8854 -10.0364  -8.8695   0.6886   2.5259   3.3894   3.5162

          k = 0.0000 0.4811 0.0000 (  6418 PWs)   bands (ev):

   -19.7963 -15.9891 -10.5107  -7.4444  -1.4502   3.2584   4.5390   5.3848

          k = 0.0000-0.5774 0.0000 (  6386 PWs)   bands (ev):

   -18.5294 -17.4993 -10.6735  -6.5983  -2.5501   3.1798   6.8504   6.9956

          k = 0.0833 0.1443 0.0000 (  6473 PWs)   bands (ev):

   -23.2888 -11.2857  -8.9712  -8.3030  -0.3592   0.4484   2.0124   2.9695

          k = 0.0833 0.2406 0.0000 (  6444 PWs)   bands (ev):

   -22.6378 -10.6838 -10.5164  -9.3039   0.5337   1.3461   2.9094   3.7960

          k = 0.0833 0.3368 0.0000 (  6420 PWs)   bands (ev):

   -21.6720 -12.7605 -10.1925  -9.3987   1.7013   1.8686   2.7152   4.1924

          k = 0.0833 0.4330 0.0000 (  6423 PWs)   bands (ev):

   -20.4100 -14.8870 -10.8290  -8.0168  -0.5012   3.6207   4.1135   4.4816

          k = 0.0833 0.5292 0.0000 (  6418 PWs)   bands (ev):

   -18.9279 -16.8321 -11.1583  -6.7053  -2.2732   3.9189   5.8398   6.6508

          k = 0.1667 0.2887 0.0000 (  6421 PWs)   bands (ev):

   -21.8323 -12.0159 -10.6695  -9.5777   1.6481   2.1608   2.4619   4.0327

          k = 0.1667 0.3849 0.0000 (  6439 PWs)   bands (ev):

   -20.7231 -13.7461 -11.7281  -8.3226   0.2095   3.1996   4.0035   5.5825

          k = 0.1667 0.4811 0.0000 (  6433 PWs)   bands (ev):

   -19.3453 -15.6604 -12.3050  -6.8935  -1.7063   5.1626   5.8343   5.8990

          k = 0.1667 0.5774 0.0000 (  6408 PWs)   bands (ev):

   -18.1078 -17.0990 -12.4902  -5.9991  -2.7766   5.7289   7.4164   7.6057

          k = 0.2500 0.4330 0.0000 (  6437 PWs)   bands (ev):

   -19.4932 -14.7822 -13.2151  -6.9777  -1.4078   4.9520   5.6137   7.3576

          k = 0.2500 0.5292 0.0000 (  6421 PWs)   bands (ev):

   -18.0686 -16.2064 -13.9238  -5.5895  -2.9307   6.6370   7.0542   7.9957

          k = 0.3333 0.5774 0.0000 (  6408 PWs)   bands (ev):

   -16.8489 -16.8489 -14.8230  -4.2310  -4.2310   6.3853   8.6559   8.6560

     the Fermi energy is    -4.1931 ev

!    total energy              =     -36.88768733 Ry
     total all-electron energy =      -152.415882 Ry
     estimated scf accuracy    <       0.00000009 Ry
     smearing contrib. (-TS)   =      -0.00018232 Ry
     internal energy E=F+TS    =     -36.88750500 Ry

     The total energy is F=E-TS. E is the sum of the following terms:
     one-electron contribution =    -256.75531530 Ry
     hartree contribution      =     129.25696314 Ry
     xc contribution           =      -9.27780149 Ry
     ewald contribution        =     112.22285694 Ry
     one-center paw contrib.   =     -12.33420829 Ry

     convergence has been achieved in   5 iterations

     Writing all to output data dir ./tmp/gr.save/

     init_run     :      2.53s CPU      1.99s WALL (       1 calls)
     electrons    :     32.17s CPU     21.74s WALL (       1 calls)

     Called by init_run:
     wfcinit      :      1.86s CPU      1.29s WALL (       1 calls)
     potinit      :      0.15s CPU      0.16s WALL (       1 calls)
     hinit0       :      0.45s CPU      0.47s WALL (       1 calls)

     Called by electrons:
     c_bands      :     26.91s CPU     17.84s WALL (       5 calls)
     sum_band     :      4.13s CPU      2.95s WALL (       5 calls)
     v_of_rho     :      0.62s CPU      0.49s WALL (       6 calls)
     newd         :      0.17s CPU      0.17s WALL (       6 calls)
     PAW_pot      :      0.37s CPU      0.37s WALL (       6 calls)
     mix_rho      :      0.08s CPU      0.06s WALL (       5 calls)

     Called by c_bands:
     init_us_2    :      0.64s CPU      0.42s WALL (     209 calls)
     init_us_2:cp :      0.64s CPU      0.42s WALL (     209 calls)
     cegterg      :     26.01s CPU     17.28s WALL (      95 calls)

     Called by *egterg:
     cdiaghg      :      0.22s CPU      0.13s WALL (     622 calls)
     h_psi        :     24.84s CPU     16.74s WALL (     641 calls)
     s_psi        :      0.39s CPU      0.23s WALL (     641 calls)
     g_psi        :      0.19s CPU      0.11s WALL (     527 calls)

     Called by h_psi:
     h_psi:calbec :      0.37s CPU      0.23s WALL (     641 calls)
     vloc_psi     :     23.92s CPU     16.19s WALL (     641 calls)
     add_vuspsi   :      0.43s CPU      0.24s WALL (     641 calls)

     General routines
     calbec       :      0.45s CPU      0.32s WALL (     736 calls)
     fft          :      0.50s CPU      0.45s WALL (      66 calls)
     ffts         :      0.03s CPU      0.02s WALL (       5 calls)
     fftw         :     23.57s CPU     16.29s WALL (    6106 calls)

     Parallel routines

     PWSCF        :     34.83s CPU     23.88s WALL


   This run was terminated on:  23: 1:41  27Apr2023            

=------------------------------------------------------------------------------=
   JOB DONE.
=------------------------------------------------------------------------------=
