
     Program Q2R v.7.2 starts on 27Apr2023 at 23:53:12 

     This program is part of the open-source Quantum ESPRESSO suite
     for quantum simulation of materials; please cite
         "P. Giannozzi et al., J. Phys.:Condens. Matter 21 395502 (2009);
         "P. Giannozzi et al., J. Phys.:Condens. Matter 29 465901 (2017);
         "P. Giannozzi et al., J. Chem. Phys. 152 154105 (2020);
          URL http://www.quantum-espresso.org", 
     in publications or presentations arising from this work. More details at
     http://www.quantum-espresso.org/quote

     Parallel version (MPI), running on     1 processors

     MPI processes distributed on     1 nodes
     314 MiB available memory on the printing compute node when the environment starts


  reading grid info from file gr.dyn0    

  reading force constants from file gr.dyn1
  Dielectric Tensor not found
  nqs=            1
 q=   0.00000000  0.00000000  0.00000000
  reading force constants from file gr.dyn2
  nqs=            6
 q=   0.00000000  0.28867514  0.00000000
 q=   0.00000000 -0.28867514  0.00000000
 q=  -0.25000000 -0.14433757  0.00000000
 q=   0.25000000 -0.14433757  0.00000000
 q=  -0.25000000  0.14433757  0.00000000
 q=   0.25000000  0.14433757  0.00000000
  reading force constants from file gr.dyn3
  nqs=            3
 q=   0.00000000 -0.57735027  0.00000000
 q=   0.50000000  0.28867514  0.00000000
 q=  -0.50000000  0.28867514  0.00000000
  reading force constants from file gr.dyn4
  nqs=            6
 q=   0.25000000  0.43301270  0.00000000
 q=  -0.25000000 -0.43301270  0.00000000
 q=   0.25000000 -0.43301270  0.00000000
 q=   0.50000000  0.00000000  0.00000000
 q=  -0.50000000  0.00000000  0.00000000
 q=  -0.25000000  0.43301270  0.00000000

      q-space grid ok, #points =   16

      fft-check success (sum of imaginary terms < 10^-12)

     Q2R          :      0.01s CPU      0.01s WALL


   This run was terminated on:  23:53:12  27Apr2023            

=------------------------------------------------------------------------------=
   JOB DONE.
=------------------------------------------------------------------------------=
