
     Program PWSCF v.7.2 starts on  1Jun2023 at  1: 7:31 

     This program is part of the open-source Quantum ESPRESSO suite
     for quantum simulation of materials; please cite
         "P. Giannozzi et al., J. Phys.:Condens. Matter 21 395502 (2009);
         "P. Giannozzi et al., J. Phys.:Condens. Matter 29 465901 (2017);
         "P. Giannozzi et al., J. Chem. Phys. 152 154105 (2020);
          URL http://www.quantum-espresso.org", 
     in publications or presentations arising from this work. More details at
     http://www.quantum-espresso.org/quote

     Parallel version (MPI), running on     1 processors

     MPI processes distributed on     1 nodes
     436 MiB available memory on the printing compute node when the environment starts

     Waiting for input...
     Reading input from standard input

     Current dimensions of program PWSCF are:
     Max number of different atomic species (ntypx) = 10
     Max number of k-points (npk) =  40000
     Max angular momentum in pseudopotentials (lmaxx) =  4
     file Si.pbe-n-kjpaw_psl.1.0.0.UPF: wavefunction(s)  3S 3P renormalized

     IMPORTANT: XC functional enforced from input :
     Exchange-correlation= HSE
                           (   1   4  12   4   0   0   0)
     EXX-fraction              =        0.25
     Any further DFT definition will be discarded
     Please, verify this is what you really want

     Message from routine set_cutoff:
     ecutrho < 4*ecutwfc, are you sure?
     Message from routine setup :
     BEWARE: nonlinear core correction is not consistent with hybrid XC
     Message from routine setup:
     Warning: ecutfock not valid for US/PAW, ignored

     Subspace diagonalization in iterative solution of the eigenvalue problem:
     a serial algorithm will be used

     EXX: q-point mesh:     2    2    2
     EXX: setup a grid of 96 q-points centered on each k-point
     (k+q)-points:
   0.0000000   0.0000000   0.0000000         1    1
   0.5000000  -0.5000000   0.5000000         4    1
  -0.5000000  -0.5000000  -0.5000000         4    3
   0.0000000  -1.0000000   0.0000000        13    1
   0.5000000   0.5000000  -0.5000000         4    4
  -1.0000000   0.0000000   0.0000000        13    5
   0.0000000   0.0000000  -1.0000000        13   13
  -0.5000000   0.5000000   0.5000000         4    2
  -0.1666667   0.1666667  -0.1666667         2    1
   0.3333333  -0.3333333   0.3333333         3   -1
  -0.6666667  -0.3333333  -0.6666667         7    3
   0.8333333   0.1666667   0.8333333        11   -3
   0.3333333   0.6666667  -0.6666667         7   -8
  -0.1666667  -0.8333333   0.8333333        11    8
   0.8333333  -0.8333333  -0.1666667        11   15
  -0.6666667   0.6666667   0.3333333         7  -15
  -0.3333333   0.3333333  -0.3333333         3    1
   0.1666667  -0.1666667   0.1666667         2   -1
  -0.8333333  -0.1666667  -0.8333333        11    3
   0.6666667   0.3333333   0.6666667         7   -3
   0.1666667   0.8333333  -0.8333333        11   -8
  -0.3333333  -0.6666667   0.6666667         7    8
   0.6666667  -0.6666667  -0.3333333         7   15
  -0.8333333   0.8333333   0.1666667        11  -15
   0.0000000   0.3333333   0.0000000         5    1
   0.5000000  -0.1666667   0.5000000         8    1
  -0.5000000  -0.1666667  -0.5000000         8    3
   0.0000000  -0.6666667   0.0000000        10   -1
  -0.5000000  -0.1666667   0.5000000         8   -4
   1.0000000   0.3333333   0.0000000        16   -5
   0.0000000   0.3333333   1.0000000        16  -17
   0.5000000  -0.1666667  -0.5000000         8   -2
  -0.1666667   0.5000000  -0.1666667         6    1
   0.3333333   0.0000000   0.3333333         9    1
  -0.6666667   0.0000000  -0.6666667        12   -1
  -0.1666667  -0.5000000  -0.1666667         6   -3
   0.3333333  -1.0000000  -0.6666667        14  -21
  -0.1666667  -0.5000000   0.8333333        15    8
  -0.1666667   0.5000000   0.8333333        15   -6
  -0.6666667  -1.0000000   0.3333333        14   14
   0.6666667  -0.3333333   0.6666667         7    1
   0.1666667   0.1666667   0.1666667         2    3
  -0.8333333   0.1666667  -0.8333333        11   -1
  -0.3333333  -0.3333333  -0.3333333         3   -3
   0.1666667  -0.8333333  -0.8333333        11    6
   0.6666667   0.6666667  -0.3333333         7  -14
  -0.3333333   0.6666667   0.6666667         7   -6
  -0.8333333  -0.8333333   0.1666667        11   14
   0.0000000   0.6666667   0.0000000        10    1
   0.5000000   0.1666667   0.5000000         8   -3
  -0.5000000   0.1666667  -0.5000000         8   -1
   0.0000000  -0.3333333   0.0000000         5   -1
  -0.5000000   0.1666667   0.5000000         8    2
   0.0000000  -0.3333333  -1.0000000        16   17
  -1.0000000  -0.3333333   0.0000000        16    5
   0.5000000   0.1666667  -0.5000000         8    4
   0.8333333  -0.1666667   0.8333333        11    1
   0.3333333   0.3333333   0.3333333         3    3
  -0.6666667   0.3333333  -0.6666667         7   -1
  -0.1666667  -0.1666667  -0.1666667         2   -3
   0.3333333  -0.6666667  -0.6666667         7    6
   0.8333333   0.8333333  -0.1666667        11  -14
  -0.1666667   0.8333333   0.8333333        11   -6
  -0.6666667  -0.6666667   0.3333333         7   14
   0.6666667   0.0000000   0.6666667        12    1
   0.1666667   0.5000000   0.1666667         6    3
   0.1666667  -0.5000000   0.1666667         6   -1
  -0.3333333   0.0000000  -0.3333333         9   -1
   0.1666667  -0.5000000  -0.8333333        15    6
   0.6666667   1.0000000  -0.3333333        14  -14
  -0.3333333   1.0000000   0.6666667        14   21
   0.1666667   0.5000000  -0.8333333        15   -8
   0.6666667  -0.3333333   1.0000000        14    1
   0.1666667   0.1666667   0.5000000         6  -16
  -0.8333333   0.1666667  -0.5000000        15   10
  -0.3333333  -0.3333333   0.0000000         9   14
  -0.8333333   0.1666667   0.5000000        15  -12
   0.6666667   0.6666667   0.0000000        12  -14
  -0.3333333   0.6666667  -1.0000000        14    5
   0.1666667   0.1666667  -0.5000000         6   14
   0.5000000  -0.1666667   0.8333333        15    1
   0.0000000   0.3333333   0.3333333         9   -6
  -1.0000000   0.3333333  -0.6666667        14   10
  -0.5000000  -0.1666667  -0.1666667         6    7
   0.0000000  -0.6666667  -0.6666667        12    6
  -0.5000000  -0.1666667   0.8333333        15   -4
   0.5000000  -0.1666667  -0.1666667         6   -6
  -1.0000000  -0.6666667   0.3333333        14  -17
  -0.3333333  -1.0000000   0.0000000        16    1
   0.1666667   0.5000000   0.5000000         8    7
   0.1666667  -0.5000000   0.5000000         8   -5
  -0.3333333   0.0000000   0.0000000         5   -5
   0.1666667  -0.5000000  -0.5000000         8    6
  -0.3333333   0.0000000   1.0000000        16  -13
   0.6666667   0.0000000   0.0000000        10    5
   0.1666667   0.5000000  -0.5000000         8   -8

     G-vector sticks info
     --------------------
     sticks:   dense  smooth     PW     G-vecs:    dense   smooth      PW
     Sum         637     637    199                10417    10417    1837

     Using Slab Decomposition



     bravais-lattice index     =            2
     lattice parameter (alat)  =      10.2076  a.u.
     unit-cell volume          =     265.8955 (a.u.)^3
     number of atoms/cell      =            2
     number of atomic types    =            1
     number of electrons       =         8.00
     number of Kohn-Sham states=            8
     kinetic-energy cutoff     =      44.0000  Ry
     charge density cutoff     =     175.0000  Ry
     cutoff for Fock operator  =     175.0000  Ry
     scf convergence threshold =      1.0E-06
     mixing beta               =       0.7000
     number of iterations used =            8  plain     mixing
     Exchange-correlation= HSE
                           (   1   4  12   4   0   0   0)
     EXX-fraction              =        0.25

     celldm(1)=  10.207600  celldm(2)=   0.000000  celldm(3)=   0.000000
     celldm(4)=   0.000000  celldm(5)=   0.000000  celldm(6)=   0.000000

     crystal axes: (cart. coord. in units of alat)
               a(1) = (  -0.500000   0.000000   0.500000 )  
               a(2) = (   0.000000   0.500000   0.500000 )  
               a(3) = (  -0.500000   0.500000   0.000000 )  

     reciprocal axes: (cart. coord. in units 2 pi/alat)
               b(1) = ( -1.000000 -1.000000  1.000000 )  
               b(2) = (  1.000000  1.000000  1.000000 )  
               b(3) = ( -1.000000  1.000000 -1.000000 )  


     PseudoPot. # 1 for Si read from file:
     ./Si.pbe-n-kjpaw_psl.1.0.0.UPF
     MD5 check sum: c39c59da582df4a0d9f10159256ea34e
     Pseudo is Projector augmented-wave + core cor, Zval =  4.0
     Generated using &quot;atomic&quot; code by A. Dal Corso  v.6.3
     Shape of augmentation charge: PSQ
     Using radial grid of 1141 points,  6 beta functions with: 
                l(1) =   0
                l(2) =   0
                l(3) =   1
                l(4) =   1
                l(5) =   2
                l(6) =   2
     Q(r) pseudized with 0 coefficients 


     atomic species   valence    mass     pseudopotential
        Si             4.00    28.08600     Si( 1.00)

     48 Sym. Ops., with inversion, found (24 have fractional translation)



   Cartesian axes

     site n.     atom                  positions (alat units)
         1           Si  tau(   1) = (   0.0000000   0.0000000   0.0000000  )
         2           Si  tau(   2) = (   0.2500000   0.2500000   0.2500000  )

     number of k points=    16
                       cart. coord. in units 2pi/alat
        k(    1) = (   0.0000000   0.0000000   0.0000000), wk =   0.0092593
        k(    2) = (  -0.1666667   0.1666667  -0.1666667), wk =   0.0740741
        k(    3) = (  -0.3333333   0.3333333  -0.3333333), wk =   0.0740741
        k(    4) = (   0.5000000  -0.5000000   0.5000000), wk =   0.0370370
        k(    5) = (   0.0000000   0.3333333   0.0000000), wk =   0.0555556
        k(    6) = (  -0.1666667   0.5000000  -0.1666667), wk =   0.2222222
        k(    7) = (   0.6666667  -0.3333333   0.6666667), wk =   0.2222222
        k(    8) = (   0.5000000  -0.1666667   0.5000000), wk =   0.2222222
        k(    9) = (   0.3333333   0.0000000   0.3333333), wk =   0.1111111
        k(   10) = (   0.0000000   0.6666667   0.0000000), wk =   0.0555556
        k(   11) = (   0.8333333  -0.1666667   0.8333333), wk =   0.2222222
        k(   12) = (   0.6666667  -0.0000000   0.6666667), wk =   0.1111111
        k(   13) = (   0.0000000  -1.0000000   0.0000000), wk =   0.0277778
        k(   14) = (   0.6666667  -0.3333333   1.0000000), wk =   0.2222222
        k(   15) = (   0.5000000  -0.1666667   0.8333333), wk =   0.2222222
        k(   16) = (  -0.3333333  -1.0000000   0.0000000), wk =   0.1111111

     Dense  grid:    10417 G-vectors     FFT dimensions: (  32,  32,  32)

     Estimated max dynamical RAM per process >     288.55 MB
     EXX: ACE will be initialized later

     Check: negative core charge=   -0.000001

     Initial potential from superposition of free atoms

     starting charge       7.9989, renormalised to       8.0000
     Starting wfcs are    8 randomized atomic wfcs

     total cpu time spent up to now is        1.2 secs

     Self-consistent Calculation

     iteration #  1     ecut=    44.00 Ry     beta= 0.70
     Davidson diagonalization with overlap
     ethr =  1.00E-02,  avg # of iterations =  3.6

     Threshold (ethr) on eigenvalues was too large:
     Diagonalizing with lowered threshold

     Davidson diagonalization with overlap
     ethr =  6.76E-04,  avg # of iterations =  2.2

     total cpu time spent up to now is        2.3 secs

     total energy              =     -93.44779203 Ry
     estimated scf accuracy    <       0.05821335 Ry

     iteration #  2     ecut=    44.00 Ry     beta= 0.70
     Davidson diagonalization with overlap
     ethr =  7.28E-04,  avg # of iterations =  1.5

     total cpu time spent up to now is        2.9 secs

     total energy              =     -93.45044382 Ry
     estimated scf accuracy    <       0.00225640 Ry

     iteration #  3     ecut=    44.00 Ry     beta= 0.70
     Davidson diagonalization with overlap
     ethr =  2.82E-05,  avg # of iterations =  3.9

     total cpu time spent up to now is        3.6 secs

     total energy              =     -93.45060486 Ry
     estimated scf accuracy    <       0.00005226 Ry

     iteration #  4     ecut=    44.00 Ry     beta= 0.70
     Davidson diagonalization with overlap
     ethr =  6.53E-07,  avg # of iterations =  3.4

     total cpu time spent up to now is        4.3 secs

     End of self-consistent calculation

          k = 0.0000 0.0000 0.0000 (  1363 PWs)   bands (ev):

    -5.6958   6.3815   6.3815   6.3815   8.9468   8.9468   8.9468   9.9274

          k =-0.1667 0.1667-0.1667 (  1321 PWs)   bands (ev):

    -5.3296   3.9848   5.9233   5.9233   8.7794   9.6041   9.6041  11.9746

          k =-0.3333 0.3333-0.3333 (  1326 PWs)   bands (ev):

    -4.2983   0.9944   5.3669   5.3669   8.1969   9.8878   9.8878  14.3111

          k = 0.5000-0.5000 0.5000 (  1308 PWs)   bands (ev):

    -3.3231  -0.6696   5.1670   5.1670   7.9720   9.7103   9.7103  14.1308

          k = 0.0000 0.3333 0.0000 (  1319 PWs)   bands (ev):

    -5.2050   4.3547   5.1658   5.1658   8.0761  10.7431  10.7593  10.7593

          k =-0.1667 0.5000-0.1667 (  1315 PWs)   bands (ev):

    -4.3778   1.9170   4.3631   4.6056   8.3406  10.4844  10.9290  11.4874

          k = 0.6667-0.3333 0.6667 (  1310 PWs)   bands (ev):

    -3.1640  -0.2904   3.5688   4.5770   8.4208  10.5391  11.0142  12.8466

          k = 0.5000-0.1667 0.5000 (  1315 PWs)   bands (ev):

    -3.5571   0.3204   3.2899   5.0651   8.8493  10.5357  10.6202  13.7517

          k = 0.3333 0.0000 0.3333 (  1313 PWs)   bands (ev):

    -4.7328   2.6467   3.9247   5.8102   9.4661   9.9540  10.2570  12.1109

          k = 0.0000 0.6667 0.0000 (  1299 PWs)   bands (ev):

    -3.7648   1.3530   3.9238   3.9238   7.0813   8.3464  13.7146  13.7146

          k = 0.8333-0.1667 0.8333 (  1314 PWs)   bands (ev):

    -2.5823  -0.2231   2.6839   3.7861   7.4157   9.0923  13.8863  13.9514

          k = 0.6667-0.0000 0.6667 (  1316 PWs)   bands (ev):

    -2.3788  -0.4354   1.8876   4.2358   7.9293  12.1994  12.9101  13.5430

          k = 0.0000-1.0000 0.0000 (  1298 PWs)   bands (ev):

    -1.4923  -1.4923   3.4835   3.4835   7.0555   7.0555  16.6224  16.6224

          k = 0.6667-0.3333 1.0000 (  1300 PWs)   bands (ev):

    -3.3724   0.7078   2.7491   4.0457   9.2394  10.0880  10.6615  13.5107

          k = 0.5000-0.1667 0.8333 (  1302 PWs)   bands (ev):

    -2.3681  -0.5137   2.3048   3.5686   9.7277   9.9680  12.5144  12.9627

          k =-0.3333-1.0000 0.0000 (  1312 PWs)   bands (ev):

    -1.3670  -1.3670   2.6694   2.6694   9.1261   9.1261  13.2034  13.2034

     highest occupied, lowest unoccupied level (ev):     6.3815    7.0555

!    total energy              =     -93.45061772 Ry
     estimated scf accuracy    <       0.00000033 Ry

     convergence has been achieved in   4 iterations

     Using ACE for calculation of exact exchange

     EXX grid:    10417 G-vectors     FFT dimensions: (  32,  32,  32)
     ACE projected onto     8 (nbndproj) and applied to     8 (nbnd) bands

     EXX: now go back to refine exchange calculation

     total cpu time spent up to now is      285.6 secs

     Self-consistent Calculation

     iteration #  1     ecut=    44.00 Ry     beta= 0.70
     Davidson diagonalization with overlap
     ethr =  6.53E-07,  avg # of iterations =  7.4

     total cpu time spent up to now is      286.9 secs

     total energy              =     -74.87055153 Ry
     estimated scf accuracy    <       0.00155272 Ry

     iteration #  2     ecut=    44.00 Ry     beta= 0.70
     Davidson diagonalization with overlap
     ethr =  1.94E-05,  avg # of iterations =  2.2

     total cpu time spent up to now is      287.8 secs

     total energy              =     -74.77420974 Ry
     estimated scf accuracy    <       0.00053904 Ry

     iteration #  3     ecut=    44.00 Ry     beta= 0.70
     Davidson diagonalization with overlap
     ethr =  6.74E-06,  avg # of iterations =  2.1

     total cpu time spent up to now is      288.8 secs

     total energy              =     -74.77412241 Ry
     estimated scf accuracy    <       0.00080842 Ry

     iteration #  4     ecut=    44.00 Ry     beta= 0.70
     Davidson diagonalization with overlap
     ethr =  6.74E-06,  avg # of iterations =  1.0

     total cpu time spent up to now is      289.5 secs

     total energy              =     -74.77408648 Ry
     estimated scf accuracy    <       0.00010859 Ry

     iteration #  5     ecut=    44.00 Ry     beta= 0.70
     Davidson diagonalization with overlap
     ethr =  1.36E-06,  avg # of iterations =  2.0

     total cpu time spent up to now is      290.4 secs

     End of self-consistent calculation

          k = 0.0000 0.0000 0.0000 (  1363 PWs)   bands (ev):

    -7.0815   6.0910   6.0910   6.0910   9.6917   9.6917   9.6917  11.3784

          k =-0.1667 0.1667-0.1667 (  1321 PWs)   bands (ev):

    -6.6812   3.6807   5.6383   5.6383   9.7006  10.3498  10.3498  13.3040

          k =-0.3333 0.3333-0.3333 (  1326 PWs)   bands (ev):

    -5.5905   0.5719   5.0709   5.0709   9.1240  10.5903  10.5904  15.2168

          k = 0.5000-0.5000 0.5000 (  1308 PWs)   bands (ev):

    -4.4196  -1.4055   4.8339   4.8339   8.8208  10.3991  10.3992  14.8948

          k = 0.0000 0.3333 0.0000 (  1319 PWs)   bands (ev):

    -6.5456   4.1840   4.8168   4.8168   8.7538  11.5969  11.5969  11.6480

          k =-0.1667 0.5000-0.1667 (  1315 PWs)   bands (ev):

    -5.6673   1.5743   4.0954   4.2389   8.9997  11.2135  11.7924  12.2863

          k = 0.6667-0.3333 0.6667 (  1310 PWs)   bands (ev):

    -4.2525  -0.9558   3.2311   4.2066   9.0914  11.3896  11.7335  13.6614

          k = 0.5000-0.1667 0.5000 (  1315 PWs)   bands (ev):

    -4.7274  -0.2307   2.9093   4.7664   9.6118  11.3298  11.3445  14.7186

          k = 0.3333 0.0000 0.3333 (  1313 PWs)   bands (ev):

    -6.0432   2.3329   3.5541   5.5708  10.3626  10.6761  11.0440  13.0472

          k = 0.0000 0.6667 0.0000 (  1299 PWs)   bands (ev):

    -5.0290   1.0813   3.5264   3.5264   7.6730   8.9471  14.6459  14.6459

          k = 0.8333-0.1667 0.8333 (  1314 PWs)   bands (ev):

    -3.6472  -0.8353   2.2728   3.3763   7.9960   9.7262  14.7279  14.9743

          k = 0.6667-0.0000 0.6667 (  1316 PWs)   bands (ev):

    -3.3629  -1.1264   1.4837   3.8747   8.5504  12.8317  13.8067  14.5738

          k = 0.0000-1.0000 0.0000 (  1298 PWs)   bands (ev):

    -2.3489  -2.3489   3.0429   3.0429   7.6108   7.6108  18.0902  18.0902

          k = 0.6667-0.3333 1.0000 (  1300 PWs)   bands (ev):

    -4.5373   0.2012   2.3531   3.7046   9.9125  10.6829  11.5200  14.4275

          k = 0.5000-0.1667 0.8333 (  1302 PWs)   bands (ev):

    -3.3361  -1.2429   1.9154   3.1701  10.3472  10.7261  13.2287  13.8770

          k =-0.3333-1.0000 0.0000 (  1312 PWs)   bands (ev):

    -2.2078  -2.2078   2.2336   2.2336   9.7660   9.7661  14.0599  14.0599

     highest occupied, lowest unoccupied level (ev):     6.0910    7.6108

!    total energy              =     -74.77410563 Ry
     estimated scf accuracy    <       0.00000007 Ry

     convergence has been achieved in   5 iterations

     Using ACE for calculation of exact exchange
     ACE projected onto     8 (nbndproj) and applied to     8 (nbnd) bands

     total energy              =     -74.77494460 Ry
     Harris-Foulkes estimate   =     -74.77494462 Ry
     est. exchange err (dexx)  =       0.00083897 Ry
     - averaged Fock potential =       1.66672082 Ry
     + Fock energy (ACE)       =      -0.83311641 Ry

     EXX: now go back to refine exchange calculation

     total cpu time spent up to now is      558.0 secs

     Self-consistent Calculation

     iteration #  1     ecut=    44.00 Ry     beta= 0.70
     Davidson diagonalization with overlap
     ethr =  1.36E-06,  avg # of iterations =  3.4

     total cpu time spent up to now is      558.9 secs

     total energy              =     -74.77501399 Ry
     estimated scf accuracy    <       0.00001941 Ry

     iteration #  2     ecut=    44.00 Ry     beta= 0.70
     Davidson diagonalization with overlap
     ethr =  2.43E-07,  avg # of iterations =  1.6

     total cpu time spent up to now is      559.7 secs

     End of self-consistent calculation

          k = 0.0000 0.0000 0.0000 (  1363 PWs)   bands (ev):

    -7.0864   6.0568   6.0568   6.0568   9.6973   9.6973   9.6973  11.4139

          k =-0.1667 0.1667-0.1667 (  1321 PWs)   bands (ev):

    -6.6837   3.6739   5.6142   5.6142   9.7147  10.3506  10.3506  13.3238

          k =-0.3333 0.3333-0.3333 (  1326 PWs)   bands (ev):

    -5.5929   0.5683   5.0485   5.0485   9.1405  10.5890  10.5890  15.2101

          k = 0.5000-0.5000 0.5000 (  1308 PWs)   bands (ev):

    -4.4223  -1.4182   4.8077   4.8077   8.8341  10.3967  10.3967  14.8989

          k = 0.0000 0.3333 0.0000 (  1319 PWs)   bands (ev):

    -6.5472   4.1859   4.7967   4.7968   8.7569  11.5934  11.5934  11.6298

          k =-0.1667 0.5000-0.1667 (  1315 PWs)   bands (ev):

    -5.6679   1.5745   4.0890   4.2204   8.9997  11.2023  11.7937  12.2783

          k = 0.6667-0.3333 0.6667 (  1310 PWs)   bands (ev):

    -4.2502  -0.9634   3.2229   4.1859   9.0919  11.3873  11.7224  13.6547

          k = 0.5000-0.1667 0.5000 (  1315 PWs)   bands (ev):

    -4.7259  -0.2345   2.8975   4.7487   9.6167  11.3205  11.3402  14.7172

          k = 0.3333 0.0000 0.3333 (  1313 PWs)   bands (ev):

    -6.0438   2.3331   3.5404   5.5527  10.3754  10.6723  11.0404  13.0431

          k = 0.0000 0.6667 0.0000 (  1299 PWs)   bands (ev):

    -5.0313   1.0882   3.5084   3.5085   7.6732   8.9437  14.6391  14.6391

          k = 0.8333-0.1667 0.8333 (  1314 PWs)   bands (ev):

    -3.6468  -0.8343   2.2585   3.3564   7.9952   9.7181  14.7132  14.9718

          k = 0.6667-0.0000 0.6667 (  1316 PWs)   bands (ev):

    -3.3579  -1.1228   1.4661   3.8565   8.5506  12.8195  13.8028  14.5770

          k = 0.0000-1.0000 0.0000 (  1298 PWs)   bands (ev):

    -2.3546  -2.3546   3.0208   3.0208   7.6120   7.6120  18.1017  18.1017

          k = 0.6667-0.3333 1.0000 (  1300 PWs)   bands (ev):

    -4.5350   0.2037   2.3397   3.6930   9.9045  10.6702  11.5171  14.4187

          k = 0.5000-0.1667 0.8333 (  1302 PWs)   bands (ev):

    -3.3301  -1.2421   1.9019   3.1556  10.3353  10.7212  13.2089  13.8735

          k =-0.3333-1.0000 0.0000 (  1312 PWs)   bands (ev):

    -2.2039  -2.2038   2.2171   2.2171   9.7577   9.7577  14.0513  14.0513

     highest occupied, lowest unoccupied level (ev):     6.0568    7.6120

!    total energy              =     -74.77501622 Ry
     estimated scf accuracy    <       0.00000049 Ry

     convergence has been achieved in   2 iterations

     Using ACE for calculation of exact exchange
     ACE projected onto     8 (nbndproj) and applied to     8 (nbnd) bands

     total energy              =     -74.77502380 Ry
     Harris-Foulkes estimate   =     -74.77502404 Ry
     est. exchange err (dexx)  =       0.00000758 Ry
     - averaged Fock potential =       1.66612538 Ry
     + Fock energy (ACE)       =      -0.83301655 Ry

     EXX: now go back to refine exchange calculation

     total cpu time spent up to now is      829.6 secs

     Self-consistent Calculation

     iteration #  1     ecut=    44.00 Ry     beta= 0.70
     Davidson diagonalization with overlap
     ethr =  2.43E-07,  avg # of iterations =  1.5

     Threshold (ethr) on eigenvalues was too large:
     Diagonalizing with lowered threshold

     Davidson diagonalization with overlap
     ethr =  8.65E-10,  avg # of iterations =  3.8

     total cpu time spent up to now is      830.9 secs

     End of self-consistent calculation

          k = 0.0000 0.0000 0.0000 (  1363 PWs)   bands (ev):

    -7.0866   6.0523   6.0523   6.0523   9.6992   9.6992   9.6992  11.4171

          k =-0.1667 0.1667-0.1667 (  1321 PWs)   bands (ev):

    -6.6835   3.6740   5.6117   5.6117   9.7161  10.3516  10.3516  13.3261

          k =-0.3333 0.3333-0.3333 (  1326 PWs)   bands (ev):

    -5.5926   0.5685   5.0461   5.0461   9.1423  10.5899  10.5899  15.2091

          k = 0.5000-0.5000 0.5000 (  1308 PWs)   bands (ev):

    -4.4222  -1.4194   4.8048   4.8048   8.8358  10.3976  10.3976  14.8998

          k = 0.0000 0.3333 0.0000 (  1319 PWs)   bands (ev):

    -6.5468   4.1867   4.7952   4.7952   8.7575  11.5934  11.5934  11.6275

          k =-0.1667 0.5000-0.1667 (  1315 PWs)   bands (ev):

    -5.6673   1.5751   4.0891   4.2189   9.0000  11.2014  11.7942  12.2779

          k = 0.6667-0.3333 0.6667 (  1310 PWs)   bands (ev):

    -4.2491  -0.9641   3.2228   4.1840   9.0922  11.3874  11.7218  13.6542

          k = 0.5000-0.1667 0.5000 (  1315 PWs)   bands (ev):

    -4.7249  -0.2346   2.8966   4.7474   9.6174  11.3199  11.3401  14.7168

          k = 0.3333 0.0000 0.3333 (  1313 PWs)   bands (ev):

    -6.0432   2.3338   3.5394   5.5513  10.3771  10.6724  11.0405  13.0431

          k = 0.0000 0.6667 0.0000 (  1299 PWs)   bands (ev):

    -5.0308   1.0893   3.5071   3.5071   7.6735   8.9436  14.6390  14.6391

          k = 0.8333-0.1667 0.8333 (  1314 PWs)   bands (ev):

    -3.6459  -0.8339   2.2575   3.3546   7.9954   9.7176  14.7123  14.9721

          k = 0.6667-0.0000 0.6667 (  1316 PWs)   bands (ev):

    -3.3566  -1.1213   1.4641   3.8551   8.5509  12.8187  13.8028  14.5777

          k = 0.0000-1.0000 0.0000 (  1298 PWs)   bands (ev):

    -2.3549  -2.3549   3.0186   3.0186   7.6129   7.6129  18.1035  18.1035

          k = 0.6667-0.3333 1.0000 (  1300 PWs)   bands (ev):

    -4.5339   0.2045   2.3385   3.6926   9.9039  10.6693  11.5172  14.4182

          k = 0.5000-0.1667 0.8333 (  1302 PWs)   bands (ev):

    -3.3284  -1.2413   1.9007   3.1545  10.3343  10.7211  13.2064  13.8735

          k =-0.3333-1.0000 0.0000 (  1312 PWs)   bands (ev):

    -2.2026  -2.2026   2.2156   2.2156   9.7571   9.7571  14.0509  14.0509

     highest occupied, lowest unoccupied level (ev):     6.0523    7.6129

!    total energy              =     -74.77502471 Ry
     estimated scf accuracy    <       0.00000008 Ry

     convergence has been achieved in   1 iterations

     Using ACE for calculation of exact exchange
     ACE projected onto     8 (nbndproj) and applied to     8 (nbnd) bands

!!   total energy              =     -74.77502482 Ry
     Harris-Foulkes estimate   =     -74.77502486 Ry
     est. exchange err (dexx)  =       0.00000011 Ry
     - averaged Fock potential =       1.66604697 Ry
     + Fock energy (ACE)       =      -0.83303053 Ry

     EXX self-consistency reached

     init_run     :      1.03s CPU      1.06s WALL (       1 calls)
     electrons    :     10.75s CPU     10.80s WALL (       4 calls)

     Called by init_run:
     aceinit0     :      0.00s CPU      0.00s WALL (       1 calls)
     wfcinit      :      0.23s CPU      0.23s WALL (       1 calls)
     potinit      :      0.26s CPU      0.28s WALL (       1 calls)
     hinit0       :      0.51s CPU      0.51s WALL (       1 calls)

     Called by electrons:
     c_bands      :      4.93s CPU      4.96s WALL (      14 calls)
     sum_band     :      0.96s CPU      0.98s WALL (      14 calls)
     v_of_rho     :      0.27s CPU      0.27s WALL (      14 calls)
     newd         :      0.29s CPU      0.31s WALL (      13 calls)
     PAW_pot      :      5.00s CPU      5.02s WALL (      14 calls)
     mix_rho      :      0.01s CPU      0.01s WALL (      14 calls)

     Called by c_bands:
     init_us_2    :      0.40s CPU      0.40s WALL (    1040 calls)
     init_us_2:cp :      0.40s CPU      0.40s WALL (    1040 calls)
     cegterg      :      4.49s CPU      4.51s WALL (     224 calls)

     Called by *egterg:
     cdiaghg      :      0.08s CPU      0.08s WALL (     777 calls)
     h_psi        :      3.10s CPU      3.11s WALL (     873 calls)
     s_psi        :      0.55s CPU      0.56s WALL (     873 calls)
     g_psi        :      0.02s CPU      0.02s WALL (     633 calls)

     Called by h_psi:
     h_psi:calbec :      0.51s CPU      0.51s WALL (     873 calls)
     vloc_psi     :      1.84s CPU      1.85s WALL (     873 calls)
     add_vuspsi   :      0.56s CPU      0.56s WALL (     873 calls)

     General routines
     calbec       :      0.86s CPU      0.87s WALL (    1993 calls)
     fft          :      0.16s CPU      0.16s WALL (     150 calls)
     ffts         :      0.00s CPU      0.00s WALL (      14 calls)
     fftw         :      1.72s CPU      1.73s WALL (   12298 calls)
     fftc         :     14.81s CPU     14.90s WALL (   65536 calls)
     fftcw        :      0.23s CPU      0.24s WALL (    1536 calls)

     Parallel routines

     EXX routines
     exx_grid     :      0.00s CPU      0.00s WALL (       1 calls)
     exxinit      :     15.71s CPU     15.93s WALL (       4 calls)
     vexx         :   1061.21s CPU   1063.69s WALL (      64 calls)
     matcalc      :      0.13s CPU      0.13s WALL (     832 calls)
     aceupdate    :      0.01s CPU      0.01s WALL (      64 calls)
     vexxace      :      0.22s CPU      0.22s WALL (     656 calls)
     aceinit      :   1061.23s CPU   1063.71s WALL (      64 calls)

     EXX+US  routines
     becxx        :      0.00s CPU      0.00s WALL (       4 calls)
     addusxx      :    527.57s CPU    528.85s WALL (   32768 calls)
     newdxx       :    472.11s CPU    473.30s WALL (   32768 calls)
     qvan_init    :     16.26s CPU     16.30s WALL (     512 calls)
     nlxx_pot     :      0.25s CPU      0.25s WALL (     512 calls)

     EXX+PAW routines
     PAW_newdxx   :     17.83s CPU     17.92s WALL (   32768 calls)

     PWSCF        :  18m 9.49s CPU  18m12.29s WALL


   This run was terminated on:   1:25:43   1Jun2023            

=------------------------------------------------------------------------------=
   JOB DONE.
=------------------------------------------------------------------------------=
