
     Program PWSCF v.7.2 starts on  1Jun2023 at  0:56:16 

     This program is part of the open-source Quantum ESPRESSO suite
     for quantum simulation of materials; please cite
         "P. Giannozzi et al., J. Phys.:Condens. Matter 21 395502 (2009);
         "P. Giannozzi et al., J. Phys.:Condens. Matter 29 465901 (2017);
         "P. Giannozzi et al., J. Chem. Phys. 152 154105 (2020);
          URL http://www.quantum-espresso.org", 
     in publications or presentations arising from this work. More details at
     http://www.quantum-espresso.org/quote

     Parallel version (MPI), running on     1 processors

     MPI processes distributed on     1 nodes
     435 MiB available memory on the printing compute node when the environment starts

     Waiting for input...
     Reading input from standard input

     Current dimensions of program PWSCF are:
     Max number of different atomic species (ntypx) = 10
     Max number of k-points (npk) =  40000
     Max angular momentum in pseudopotentials (lmaxx) =  4
     file Si.pbe-n-kjpaw_psl.1.0.0.UPF: wavefunction(s)  3S 3P renormalized

     IMPORTANT: XC functional enforced from input :
     Exchange-correlation= HSE
                           (   1   4  12   4   0   0   0)
     EXX-fraction              =        0.25
     Any further DFT definition will be discarded
     Please, verify this is what you really want

     Message from routine set_cutoff:
     ecutrho < 4*ecutwfc, are you sure?
     Message from routine setup :
     BEWARE: nonlinear core correction is not consistent with hybrid XC
     Message from routine setup:
     Warning: ecutfock not valid for US/PAW, ignored

     Subspace diagonalization in iterative solution of the eigenvalue problem:
     a serial algorithm will be used

     EXX: q-point mesh:     1    1    1
     EXX: setup a grid of 16 q-points centered on each k-point
     (k+q)-points:
   0.0000000   0.0000000   0.0000000         1    1
  -0.1666667   0.1666667  -0.1666667         2    1
  -0.3333333   0.3333333  -0.3333333         3    1
   0.5000000  -0.5000000   0.5000000         4    1
   0.0000000   0.3333333   0.0000000         5    1
  -0.1666667   0.5000000  -0.1666667         6    1
   0.6666667  -0.3333333   0.6666667         7    1
   0.5000000  -0.1666667   0.5000000         8    1
   0.3333333   0.0000000   0.3333333         9    1
   0.0000000   0.6666667   0.0000000        10    1
   0.8333333  -0.1666667   0.8333333        11    1
   0.6666667   0.0000000   0.6666667        12    1
   0.0000000  -1.0000000   0.0000000        13    1
   0.6666667  -0.3333333   1.0000000        14    1
   0.5000000  -0.1666667   0.8333333        15    1
  -0.3333333  -1.0000000   0.0000000        16    1

     G-vector sticks info
     --------------------
     sticks:   dense  smooth     PW     G-vecs:    dense   smooth      PW
     Sum         637     637    199                10417    10417    1837

     Using Slab Decomposition



     bravais-lattice index     =            2
     lattice parameter (alat)  =      10.2076  a.u.
     unit-cell volume          =     265.8955 (a.u.)^3
     number of atoms/cell      =            2
     number of atomic types    =            1
     number of electrons       =         8.00
     number of Kohn-Sham states=            8
     kinetic-energy cutoff     =      44.0000  Ry
     charge density cutoff     =     175.0000  Ry
     cutoff for Fock operator  =     175.0000  Ry
     scf convergence threshold =      1.0E-08
     mixing beta               =       0.7000
     number of iterations used =            8  plain     mixing
     Exchange-correlation= HSE
                           (   1   4  12   4   0   0   0)
     EXX-fraction              =        0.25

     celldm(1)=  10.207600  celldm(2)=   0.000000  celldm(3)=   0.000000
     celldm(4)=   0.000000  celldm(5)=   0.000000  celldm(6)=   0.000000

     crystal axes: (cart. coord. in units of alat)
               a(1) = (  -0.500000   0.000000   0.500000 )  
               a(2) = (   0.000000   0.500000   0.500000 )  
               a(3) = (  -0.500000   0.500000   0.000000 )  

     reciprocal axes: (cart. coord. in units 2 pi/alat)
               b(1) = ( -1.000000 -1.000000  1.000000 )  
               b(2) = (  1.000000  1.000000  1.000000 )  
               b(3) = ( -1.000000  1.000000 -1.000000 )  


     PseudoPot. # 1 for Si read from file:
     ./Si.pbe-n-kjpaw_psl.1.0.0.UPF
     MD5 check sum: c39c59da582df4a0d9f10159256ea34e
     Pseudo is Projector augmented-wave + core cor, Zval =  4.0
     Generated using &quot;atomic&quot; code by A. Dal Corso  v.6.3
     Shape of augmentation charge: PSQ
     Using radial grid of 1141 points,  6 beta functions with: 
                l(1) =   0
                l(2) =   0
                l(3) =   1
                l(4) =   1
                l(5) =   2
                l(6) =   2
     Q(r) pseudized with 0 coefficients 


     atomic species   valence    mass     pseudopotential
        Si             4.00    28.08600     Si( 1.00)

     48 Sym. Ops., with inversion, found (24 have fractional translation)



   Cartesian axes

     site n.     atom                  positions (alat units)
         1           Si  tau(   1) = (   0.0000000   0.0000000   0.0000000  )
         2           Si  tau(   2) = (   0.2500000   0.2500000   0.2500000  )

     number of k points=    16
                       cart. coord. in units 2pi/alat
        k(    1) = (   0.0000000   0.0000000   0.0000000), wk =   0.0092593
        k(    2) = (  -0.1666667   0.1666667  -0.1666667), wk =   0.0740741
        k(    3) = (  -0.3333333   0.3333333  -0.3333333), wk =   0.0740741
        k(    4) = (   0.5000000  -0.5000000   0.5000000), wk =   0.0370370
        k(    5) = (   0.0000000   0.3333333   0.0000000), wk =   0.0555556
        k(    6) = (  -0.1666667   0.5000000  -0.1666667), wk =   0.2222222
        k(    7) = (   0.6666667  -0.3333333   0.6666667), wk =   0.2222222
        k(    8) = (   0.5000000  -0.1666667   0.5000000), wk =   0.2222222
        k(    9) = (   0.3333333   0.0000000   0.3333333), wk =   0.1111111
        k(   10) = (   0.0000000   0.6666667   0.0000000), wk =   0.0555556
        k(   11) = (   0.8333333  -0.1666667   0.8333333), wk =   0.2222222
        k(   12) = (   0.6666667  -0.0000000   0.6666667), wk =   0.1111111
        k(   13) = (   0.0000000  -1.0000000   0.0000000), wk =   0.0277778
        k(   14) = (   0.6666667  -0.3333333   1.0000000), wk =   0.2222222
        k(   15) = (   0.5000000  -0.1666667   0.8333333), wk =   0.2222222
        k(   16) = (  -0.3333333  -1.0000000   0.0000000), wk =   0.1111111

     Dense  grid:    10417 G-vectors     FFT dimensions: (  32,  32,  32)

     Estimated max dynamical RAM per process >      85.49 MB
     EXX: ACE will be initialized later

     Check: negative core charge=   -0.000001

     Initial potential from superposition of free atoms

     starting charge       7.9989, renormalised to       8.0000
     Starting wfcs are    8 randomized atomic wfcs

     total cpu time spent up to now is        1.1 secs

     Self-consistent Calculation

     iteration #  1     ecut=    44.00 Ry     beta= 0.70
     Davidson diagonalization with overlap
     ethr =  1.00E-02,  avg # of iterations =  3.6

     Threshold (ethr) on eigenvalues was too large:
     Diagonalizing with lowered threshold

     Davidson diagonalization with overlap
     ethr =  6.76E-04,  avg # of iterations =  2.2

     total cpu time spent up to now is        2.3 secs

     total energy              =     -93.44779203 Ry
     estimated scf accuracy    <       0.05821335 Ry

     iteration #  2     ecut=    44.00 Ry     beta= 0.70
     Davidson diagonalization with overlap
     ethr =  7.28E-04,  avg # of iterations =  1.5

     total cpu time spent up to now is        2.9 secs

     total energy              =     -93.45044382 Ry
     estimated scf accuracy    <       0.00225640 Ry

     iteration #  3     ecut=    44.00 Ry     beta= 0.70
     Davidson diagonalization with overlap
     ethr =  2.82E-05,  avg # of iterations =  3.9

     total cpu time spent up to now is        3.5 secs

     total energy              =     -93.45060486 Ry
     estimated scf accuracy    <       0.00005226 Ry

     iteration #  4     ecut=    44.00 Ry     beta= 0.70
     Davidson diagonalization with overlap
     ethr =  6.53E-07,  avg # of iterations =  3.4

     total cpu time spent up to now is        4.3 secs

     total energy              =     -93.45061772 Ry
     estimated scf accuracy    <       0.00000033 Ry

     iteration #  5     ecut=    44.00 Ry     beta= 0.70
     Davidson diagonalization with overlap
     ethr =  4.13E-09,  avg # of iterations =  3.4

     total cpu time spent up to now is        5.0 secs

     total energy              =     -93.45061810 Ry
     estimated scf accuracy    <       0.00000002 Ry

     iteration #  6     ecut=    44.00 Ry     beta= 0.70
     Davidson diagonalization with overlap
     ethr =  2.30E-10,  avg # of iterations =  2.3

     total cpu time spent up to now is        5.6 secs

     End of self-consistent calculation

          k = 0.0000 0.0000 0.0000 (  1363 PWs)   bands (ev):

    -5.6964   6.3805   6.3805   6.3805   8.9461   8.9461   8.9461   9.9267

          k =-0.1667 0.1667-0.1667 (  1321 PWs)   bands (ev):

    -5.3301   3.9840   5.9224   5.9224   8.7791   9.6034   9.6034  11.9741

          k =-0.3333 0.3333-0.3333 (  1326 PWs)   bands (ev):

    -4.2989   0.9939   5.3660   5.3660   8.1968   9.8873   9.8873  14.3128

          k = 0.5000-0.5000 0.5000 (  1308 PWs)   bands (ev):

    -3.3239  -0.6700   5.1661   5.1661   7.9719   9.7099   9.7099  14.1335

          k = 0.0000 0.3333 0.0000 (  1319 PWs)   bands (ev):

    -5.2056   4.3537   5.1650   5.1650   8.0761  10.7430  10.7585  10.7585

          k =-0.1667 0.5000-0.1667 (  1315 PWs)   bands (ev):

    -4.3784   1.9162   4.3624   4.6048   8.3407  10.4841  10.9288  11.4868

          k = 0.6667-0.3333 0.6667 (  1310 PWs)   bands (ev):

    -3.1648  -0.2909   3.5682   4.5761   8.4210  10.5389  11.0137  12.8466

          k = 0.5000-0.1667 0.5000 (  1315 PWs)   bands (ev):

    -3.5578   0.3198   3.2893   5.0642   8.8492  10.5357  10.6196  13.7517

          k = 0.3333 0.0000 0.3333 (  1313 PWs)   bands (ev):

    -4.7334   2.6459   3.9242   5.8092   9.4656   9.9533  10.2569  12.1110

          k = 0.0000 0.6667 0.0000 (  1299 PWs)   bands (ev):

    -3.7655   1.3521   3.9230   3.9230   7.0818   8.3471  13.7139  13.7139

          k = 0.8333-0.1667 0.8333 (  1314 PWs)   bands (ev):

    -2.5831  -0.2240   2.6836   3.7853   7.4163   9.0926  13.8856  13.9509

          k = 0.6667-0.0000 0.6667 (  1316 PWs)   bands (ev):

    -2.3796  -0.4362   1.8875   4.2350   7.9297  12.1998  12.9093  13.5425

          k = 0.0000-1.0000 0.0000 (  1298 PWs)   bands (ev):

    -1.4931  -1.4931   3.4827   3.4827   7.0562   7.0562  16.6216  16.6217

          k = 0.6667-0.3333 1.0000 (  1300 PWs)   bands (ev):

    -3.3731   0.7069   2.7487   4.0450   9.2394  10.0884  10.6609  13.5102

          k = 0.5000-0.1667 0.8333 (  1302 PWs)   bands (ev):

    -2.3690  -0.5145   2.3045   3.5681   9.7281   9.9676  12.5145  12.9622

          k =-0.3333-1.0000 0.0000 (  1312 PWs)   bands (ev):

    -1.3679  -1.3679   2.6691   2.6691   9.1264   9.1264  13.2030  13.2030

     highest occupied, lowest unoccupied level (ev):     6.3805    7.0562

!    total energy              =     -93.45061811 Ry
     estimated scf accuracy    <          1.1E-10 Ry

     convergence has been achieved in   6 iterations

     Using ACE for calculation of exact exchange

     EXX grid:    10417 G-vectors     FFT dimensions: (  32,  32,  32)
     ACE projected onto     8 (nbndproj) and applied to     8 (nbnd) bands

     EXX: now go back to refine exchange calculation

     total cpu time spent up to now is       54.0 secs

     Self-consistent Calculation

     iteration #  1     ecut=    44.00 Ry     beta= 0.70
     Davidson diagonalization with overlap
     ethr =  2.30E-10,  avg # of iterations = 10.6

     total cpu time spent up to now is       55.5 secs

     total energy              =     -74.93002390 Ry
     estimated scf accuracy    <       0.00179625 Ry

     iteration #  2     ecut=    44.00 Ry     beta= 0.70
     Davidson diagonalization with overlap
     ethr =  2.25E-05,  avg # of iterations =  2.2

     total cpu time spent up to now is       56.4 secs

     total energy              =     -74.83453021 Ry
     estimated scf accuracy    <       0.00051810 Ry

     iteration #  3     ecut=    44.00 Ry     beta= 0.70
     Davidson diagonalization with overlap
     ethr =  6.48E-06,  avg # of iterations =  2.1

     total cpu time spent up to now is       57.3 secs

     total energy              =     -74.83453679 Ry
     estimated scf accuracy    <       0.00054040 Ry

     iteration #  4     ecut=    44.00 Ry     beta= 0.70
     Davidson diagonalization with overlap
     ethr =  6.48E-06,  avg # of iterations =  1.0

     total cpu time spent up to now is       58.1 secs

     total energy              =     -74.83450655 Ry
     estimated scf accuracy    <       0.00008160 Ry

     iteration #  5     ecut=    44.00 Ry     beta= 0.70
     Davidson diagonalization with overlap
     ethr =  1.02E-06,  avg # of iterations =  2.0

     total cpu time spent up to now is       58.9 secs

     total energy              =     -74.83451910 Ry
     estimated scf accuracy    <       0.00000022 Ry

     iteration #  6     ecut=    44.00 Ry     beta= 0.70
     Davidson diagonalization with overlap
     ethr =  2.74E-09,  avg # of iterations =  3.0

     total cpu time spent up to now is       59.8 secs

     total energy              =     -74.83451933 Ry
     estimated scf accuracy    <       0.00000043 Ry

     iteration #  7     ecut=    44.00 Ry     beta= 0.70
     Davidson diagonalization with overlap
     ethr =  2.74E-09,  avg # of iterations =  1.0

     total cpu time spent up to now is       60.6 secs

     total energy              =     -74.83451913 Ry
     estimated scf accuracy    <       0.00000023 Ry

     iteration #  8     ecut=    44.00 Ry     beta= 0.70
     Davidson diagonalization with overlap
     ethr =  2.74E-09,  avg # of iterations =  2.0

     total cpu time spent up to now is       61.4 secs

     End of self-consistent calculation

          k = 0.0000 0.0000 0.0000 (  1363 PWs)   bands (ev):

    -6.7330   5.5295   5.5295   5.5295  10.0910  10.0910  10.0910  11.6343

          k =-0.1667 0.1667-0.1667 (  1321 PWs)   bands (ev):

    -6.3105   3.2033   5.1060   5.1060  10.0311  10.6953  10.6953  13.6173

          k =-0.3333 0.3333-0.3333 (  1326 PWs)   bands (ev):

    -5.2339   0.1564   4.5606   4.5606   9.4660  10.8814  10.8815  15.3847

          k = 0.5000-0.5000 0.5000 (  1308 PWs)   bands (ev):

    -4.2257  -1.5502   4.3548   4.3548   9.2439  10.6636  10.6636  15.0057

          k = 0.0000 0.3333 0.0000 (  1319 PWs)   bands (ev):

    -6.1730   3.5796   4.3652   4.3652   9.0860  11.8611  11.9302  11.9302

          k =-0.1667 0.5000-0.1667 (  1315 PWs)   bands (ev):

    -5.2941   1.1456   3.5518   3.8219   9.3299  11.4100  12.0792  12.5513

          k = 0.6667-0.3333 0.6667 (  1310 PWs)   bands (ev):

    -4.0295  -1.1224   2.7796   3.7822   9.4138  11.6753  11.9595  13.8137

          k = 0.5000-0.1667 0.5000 (  1315 PWs)   bands (ev):

    -4.4383  -0.4905   2.5000   4.2454   9.9204  11.5749  11.6334  14.9275

          k = 0.3333 0.0000 0.3333 (  1313 PWs)   bands (ev):

    -5.6681   1.9185   3.1079   4.9453  10.6829  11.0015  11.3660  13.2454

          k = 0.0000 0.6667 0.0000 (  1299 PWs)   bands (ev):

    -4.6772   0.5510   3.1074   3.1074   7.9978   9.1961  14.9122  14.9123

          k = 0.8333-0.1667 0.8333 (  1314 PWs)   bands (ev):

    -3.4334  -1.0153   1.8535   2.9815   8.3111   9.9493  14.8920  15.2052

          k = 0.6667-0.0000 0.6667 (  1316 PWs)   bands (ev):

    -3.2074  -1.2287   1.0419   3.4337   8.8579  13.0472  13.9340  14.7717

          k = 0.0000-1.0000 0.0000 (  1298 PWs)   bands (ev):

    -2.3472  -2.3472   2.6592   2.6592   7.9183   7.9184  18.0116  18.0116

          k = 0.6667-0.3333 1.0000 (  1300 PWs)   bands (ev):

    -4.2297  -0.0365   1.9285   3.2395  10.1980  10.8903  11.7654  14.6791

          k = 0.5000-0.1667 0.8333 (  1302 PWs)   bands (ev):

    -3.1771  -1.2958   1.4901   2.7665  10.5792  10.9907  13.4165  14.0073

          k =-0.3333-1.0000 0.0000 (  1312 PWs)   bands (ev):

    -2.1522  -2.1522   1.8529   1.8529  10.0039  10.0039  14.2303  14.2303

     highest occupied, lowest unoccupied level (ev):     5.5295    7.9183

!    total energy              =     -74.83451917 Ry
     estimated scf accuracy    <          1.8E-09 Ry

     convergence has been achieved in   8 iterations

     Using ACE for calculation of exact exchange
     ACE projected onto     8 (nbndproj) and applied to     8 (nbnd) bands

     total energy              =     -74.83538321 Ry
     Harris-Foulkes estimate   =     -74.83538321 Ry
     est. exchange err (dexx)  =       0.00086403 Ry
     - averaged Fock potential =       1.78653074 Ry
     + Fock energy (ACE)       =      -0.89217247 Ry

     EXX: now go back to refine exchange calculation

     total cpu time spent up to now is       94.2 secs

     Self-consistent Calculation

     iteration #  1     ecut=    44.00 Ry     beta= 0.70
     Davidson diagonalization with overlap
     ethr =  2.74E-09,  avg # of iterations =  5.8

     total cpu time spent up to now is       95.3 secs

     total energy              =     -74.83546209 Ry
     estimated scf accuracy    <       0.00003618 Ry

     iteration #  2     ecut=    44.00 Ry     beta= 0.70
     Davidson diagonalization with overlap
     ethr =  4.52E-07,  avg # of iterations =  1.2

     total cpu time spent up to now is       96.1 secs

     total energy              =     -74.83546612 Ry
     estimated scf accuracy    <       0.00000030 Ry

     iteration #  3     ecut=    44.00 Ry     beta= 0.70
     Davidson diagonalization with overlap
     ethr =  3.78E-09,  avg # of iterations =  3.5

     total cpu time spent up to now is       97.0 secs

     total energy              =     -74.83546639 Ry
     estimated scf accuracy    <       0.00000003 Ry

     iteration #  4     ecut=    44.00 Ry     beta= 0.70
     Davidson diagonalization with overlap
     ethr =  3.48E-10,  avg # of iterations =  1.6

     total cpu time spent up to now is       97.8 secs

     End of self-consistent calculation

          k = 0.0000 0.0000 0.0000 (  1363 PWs)   bands (ev):

    -6.7496   5.4903   5.4903   5.4903  10.0931  10.0931  10.0931  11.6530

          k =-0.1667 0.1667-0.1667 (  1321 PWs)   bands (ev):

    -6.3223   3.1955   5.0743   5.0743  10.0322  10.6919  10.6919  13.6219

          k =-0.3333 0.3333-0.3333 (  1326 PWs)   bands (ev):

    -5.2435   0.1516   4.5347   4.5347   9.4703  10.8764  10.8764  15.3634

          k = 0.5000-0.5000 0.5000 (  1308 PWs)   bands (ev):

    -4.2361  -1.5535   4.3304   4.3304   9.2493  10.6583  10.6583  15.0009

          k = 0.0000 0.3333 0.0000 (  1319 PWs)   bands (ev):

    -6.1830   3.5671   4.3434   4.3434   9.0835  11.8370  11.9204  11.9204

          k =-0.1667 0.5000-0.1667 (  1315 PWs)   bands (ev):

    -5.3004   1.1425   3.5354   3.8032   9.3262  11.3968  12.0731  12.5385

          k = 0.6667-0.3333 0.6667 (  1310 PWs)   bands (ev):

    -4.0337  -1.1255   2.7682   3.7638   9.4103  11.6696  11.9467  13.8022

          k = 0.5000-0.1667 0.5000 (  1315 PWs)   bands (ev):

    -4.4437  -0.4922   2.4890   4.2241   9.9186  11.5636  11.6269  14.9170

          k = 0.3333 0.0000 0.3333 (  1313 PWs)   bands (ev):

    -5.6760   1.9187   3.0920   4.9167  10.6834  10.9967  11.3584  13.2330

          k = 0.0000 0.6667 0.0000 (  1299 PWs)   bands (ev):

    -4.6832   0.5458   3.0897   3.0897   7.9942   9.1892  14.9023  14.9023

          k = 0.8333-0.1667 0.8333 (  1314 PWs)   bands (ev):

    -3.4356  -1.0154   1.8414   2.9654   8.3062   9.9383  14.8759  15.1988

          k = 0.6667-0.0000 0.6667 (  1316 PWs)   bands (ev):

    -3.2095  -1.2269   1.0299   3.4169   8.8522  13.0363  13.9233  14.7669

          k = 0.0000-1.0000 0.0000 (  1298 PWs)   bands (ev):

    -2.3513  -2.3513   2.6425   2.6425   7.9134   7.9134  18.0091  18.0091

          k = 0.6667-0.3333 1.0000 (  1300 PWs)   bands (ev):

    -4.2316  -0.0341   1.9163   3.2261  10.1896  10.8761  11.7548  14.6710

          k = 0.5000-0.1667 0.8333 (  1302 PWs)   bands (ev):

    -3.1760  -1.2945   1.4799   2.7547  10.5674  10.9812  13.4004  13.9953

          k =-0.3333-1.0000 0.0000 (  1312 PWs)   bands (ev):

    -2.1496  -2.1496   1.8417   1.8417   9.9933   9.9933  14.2179  14.2179

     highest occupied, lowest unoccupied level (ev):     5.4903    7.9134

!    total energy              =     -74.83546639 Ry
     estimated scf accuracy    <          2.8E-09 Ry

     convergence has been achieved in   4 iterations

     Using ACE for calculation of exact exchange
     ACE projected onto     8 (nbndproj) and applied to     8 (nbnd) bands

     total energy              =     -74.83547725 Ry
     Harris-Foulkes estimate   =     -74.83547725 Ry
     est. exchange err (dexx)  =       0.00001086 Ry
     - averaged Fock potential =       1.78384520 Ry
     + Fock energy (ACE)       =      -0.89168359 Ry

     EXX: now go back to refine exchange calculation

     total cpu time spent up to now is      130.7 secs

     Self-consistent Calculation

     iteration #  1     ecut=    44.00 Ry     beta= 0.70
     Davidson diagonalization with overlap
     ethr =  3.48E-10,  avg # of iterations =  4.4

     total cpu time spent up to now is      131.7 secs

     total energy              =     -74.83547892 Ry
     estimated scf accuracy    <       0.00000053 Ry

     iteration #  2     ecut=    44.00 Ry     beta= 0.70
     Davidson diagonalization with overlap
     ethr =  6.67E-09,  avg # of iterations =  1.2

     total cpu time spent up to now is      132.4 secs

     End of self-consistent calculation

          k = 0.0000 0.0000 0.0000 (  1363 PWs)   bands (ev):

    -6.7518   5.4850   5.4850   5.4850  10.0938  10.0938  10.0938  11.6543

          k =-0.1667 0.1667-0.1667 (  1321 PWs)   bands (ev):

    -6.3240   3.1958   5.0690   5.0690  10.0311  10.6921  10.6921  13.6224

          k =-0.3333 0.3333-0.3333 (  1326 PWs)   bands (ev):

    -5.2450   0.1522   4.5310   4.5310   9.4699  10.8762  10.8762  15.3615

          k = 0.5000-0.5000 0.5000 (  1308 PWs)   bands (ev):

    -4.2384  -1.5521   4.3271   4.3271   9.2491  10.6579  10.6579  15.0002

          k = 0.0000 0.3333 0.0000 (  1319 PWs)   bands (ev):

    -6.1845   3.5648   4.3407   4.3407   9.0831  11.8352  11.9192  11.9192

          k =-0.1667 0.5000-0.1667 (  1315 PWs)   bands (ev):

    -5.3012   1.1426   3.5333   3.8007   9.3256  11.3954  12.0724  12.5369

          k = 0.6667-0.3333 0.6667 (  1310 PWs)   bands (ev):

    -4.0344  -1.1252   2.7669   3.7616   9.4097  11.6689  11.9451  13.8009

          k = 0.5000-0.1667 0.5000 (  1315 PWs)   bands (ev):

    -4.4444  -0.4917   2.4879   4.2215   9.9180  11.5624  11.6261  14.9110

          k = 0.3333 0.0000 0.3333 (  1313 PWs)   bands (ev):

    -5.6769   1.9193   3.0902   4.9129  10.6830  10.9965  11.3575  13.2321

          k = 0.0000 0.6667 0.0000 (  1299 PWs)   bands (ev):

    -4.6839   0.5450   3.0878   3.0878   7.9935   9.1885  14.9012  14.9012

          k = 0.8333-0.1667 0.8333 (  1314 PWs)   bands (ev):

    -3.4357  -1.0152   1.8405   2.9637   8.3054   9.9369  14.8741  15.1982

          k = 0.6667-0.0000 0.6667 (  1316 PWs)   bands (ev):

    -3.2097  -1.2262   1.0290   3.4152   8.8513  13.0351  13.9220  14.7662

          k = 0.0000-1.0000 0.0000 (  1298 PWs)   bands (ev):

    -2.3517  -2.3517   2.6409   2.6409   7.9126   7.9126  18.0086  18.0086

          k = 0.6667-0.3333 1.0000 (  1300 PWs)   bands (ev):

    -4.2315  -0.0335   1.9153   3.2250  10.1885  10.8743  11.7535  14.6703

          k = 0.5000-0.1667 0.8333 (  1302 PWs)   bands (ev):

    -3.1755  -1.2938   1.4792   2.7539  10.5658  10.9798  13.3983  13.9938

          k =-0.3333-1.0000 0.0000 (  1312 PWs)   bands (ev):

    -2.1488  -2.1488   1.8409   1.8409   9.9918   9.9918  14.2163  14.2163

     highest occupied, lowest unoccupied level (ev):     5.4850    7.9126

!    total energy              =     -74.83547898 Ry
     estimated scf accuracy    <          3.9E-09 Ry

     convergence has been achieved in   2 iterations

     Using ACE for calculation of exact exchange
     ACE projected onto     8 (nbndproj) and applied to     8 (nbnd) bands

     total energy              =     -74.83547932 Ry
     Harris-Foulkes estimate   =     -74.83547932 Ry
     est. exchange err (dexx)  =       0.00000034 Ry
     - averaged Fock potential =       1.78329045 Ry
     + Fock energy (ACE)       =      -0.89160720 Ry

     EXX: now go back to refine exchange calculation

     total cpu time spent up to now is      165.6 secs

     Self-consistent Calculation

     iteration #  1     ecut=    44.00 Ry     beta= 0.70
     Davidson diagonalization with overlap
     ethr =  6.67E-09,  avg # of iterations =  2.3

     Threshold (ethr) on eigenvalues was too large:
     Diagonalizing with lowered threshold

     Davidson diagonalization with overlap
     ethr =  9.80E-11,  avg # of iterations =  1.9

     total cpu time spent up to now is      166.8 secs

     End of self-consistent calculation

          k = 0.0000 0.0000 0.0000 (  1363 PWs)   bands (ev):

    -6.7520   5.4844   5.4844   5.4844  10.0940  10.0940  10.0940  11.6545

          k =-0.1667 0.1667-0.1667 (  1321 PWs)   bands (ev):

    -6.3243   3.1964   5.0680   5.0680  10.0308  10.6923  10.6923  13.6226

          k =-0.3333 0.3333-0.3333 (  1326 PWs)   bands (ev):

    -5.2452   0.1527   4.5305   4.5305   9.4698  10.8762  10.8762  15.3612

          k = 0.5000-0.5000 0.5000 (  1308 PWs)   bands (ev):

    -4.2388  -1.5515   4.3267   4.3267   9.2490  10.6579  10.6579  14.9999

          k = 0.0000 0.3333 0.0000 (  1319 PWs)   bands (ev):

    -6.1846   3.5645   4.3403   4.3403   9.0831  11.8351  11.9191  11.9191

          k =-0.1667 0.5000-0.1667 (  1315 PWs)   bands (ev):

    -5.3012   1.1427   3.5330   3.8004   9.3255  11.3953  12.0725  12.5367

          k = 0.6667-0.3333 0.6667 (  1310 PWs)   bands (ev):

    -4.0344  -1.1250   2.7668   3.7613   9.4096  11.6689  11.9449  13.8007

          k = 0.5000-0.1667 0.5000 (  1315 PWs)   bands (ev):

    -4.4444  -0.4914   2.4878   4.2213   9.9179  11.5622  11.6261  14.8940

          k = 0.3333 0.0000 0.3333 (  1313 PWs)   bands (ev):

    -5.6770   1.9197   3.0901   4.9125  10.6830  10.9966  11.3574  13.2320

          k = 0.0000 0.6667 0.0000 (  1299 PWs)   bands (ev):

    -4.6839   0.5450   3.0876   3.0876   7.9934   9.1884  14.9011  14.9011

          k = 0.8333-0.1667 0.8333 (  1314 PWs)   bands (ev):

    -3.4356  -1.0150   1.8405   2.9636   8.3052   9.9367  14.8739  15.1982

          k = 0.6667-0.0000 0.6667 (  1316 PWs)   bands (ev):

    -3.2096  -1.2260   1.0290   3.4151   8.8511  13.0350  13.9218  14.7662

          k = 0.0000-1.0000 0.0000 (  1298 PWs)   bands (ev):

    -2.3517  -2.3517   2.6408   2.6408   7.9125   7.9125  18.0086  18.0086

          k = 0.6667-0.3333 1.0000 (  1300 PWs)   bands (ev):

    -4.2313  -0.0333   1.9153   3.2250  10.1883  10.8741  11.7533  14.6703

          k = 0.5000-0.1667 0.8333 (  1302 PWs)   bands (ev):

    -3.1753  -1.2934   1.4792   2.7539  10.5656  10.9796  13.3981  13.9936

          k =-0.3333-1.0000 0.0000 (  1312 PWs)   bands (ev):

    -2.1485  -2.1485   1.8410   1.8410   9.9916   9.9916  14.2161  14.2161

     highest occupied, lowest unoccupied level (ev):     5.4844    7.9125

!    total energy              =     -74.83547939 Ry
     estimated scf accuracy    <          7.9E-09 Ry

     convergence has been achieved in   1 iterations

     Using ACE for calculation of exact exchange
     ACE projected onto     8 (nbndproj) and applied to     8 (nbnd) bands

     total energy              =     -74.83547941 Ry
     Harris-Foulkes estimate   =     -74.83547941 Ry
     est. exchange err (dexx)  =       0.00000002 Ry
     - averaged Fock potential =       1.78320142 Ry
     + Fock energy (ACE)       =      -0.89159424 Ry

     EXX: now go back to refine exchange calculation

     total cpu time spent up to now is      199.7 secs

     Self-consistent Calculation

     iteration #  1     ecut=    44.00 Ry     beta= 0.70
     Davidson diagonalization with overlap
     ethr =  9.80E-11,  avg # of iterations =  2.6

     Threshold (ethr) on eigenvalues was too large:
     Diagonalizing with lowered threshold

     Davidson diagonalization with overlap
     ethr =  2.18E-12,  avg # of iterations =  2.4

     total cpu time spent up to now is      200.9 secs

     End of self-consistent calculation

          k = 0.0000 0.0000 0.0000 (  1363 PWs)   bands (ev):

    -6.7523   5.4839   5.4839   5.4839  10.0938  10.0938  10.0938  11.6541

          k =-0.1667 0.1667-0.1667 (  1321 PWs)   bands (ev):

    -6.3246   3.1963   5.0674   5.0674  10.0305  10.6922  10.6922  13.6224

          k =-0.3333 0.3333-0.3333 (  1326 PWs)   bands (ev):

    -5.2455   0.1526   4.5300   4.5300   9.4695  10.8761  10.8761  15.3610

          k = 0.5000-0.5000 0.5000 (  1308 PWs)   bands (ev):

    -4.2391  -1.5516   4.3263   4.3263   9.2487  10.6577  10.6577  14.9998

          k = 0.0000 0.3333 0.0000 (  1319 PWs)   bands (ev):

    -6.1849   3.5641   4.3400   4.3400   9.0829  11.8350  11.9189  11.9189

          k =-0.1667 0.5000-0.1667 (  1315 PWs)   bands (ev):

    -5.3015   1.1425   3.5327   3.8001   9.3254  11.3951  12.0722  12.5364

          k = 0.6667-0.3333 0.6667 (  1310 PWs)   bands (ev):

    -4.0347  -1.1251   2.7666   3.7610   9.4094  11.6687  11.9447  13.8005

          k = 0.5000-0.1667 0.5000 (  1315 PWs)   bands (ev):

    -4.4447  -0.4916   2.4876   4.2209   9.9177  11.5621  11.6259  14.8543

          k = 0.3333 0.0000 0.3333 (  1313 PWs)   bands (ev):

    -5.6772   1.9194   3.0898   4.9121  10.6828  10.9965  11.3572  13.2318

          k = 0.0000 0.6667 0.0000 (  1299 PWs)   bands (ev):

    -4.6842   0.5446   3.0873   3.0873   7.9932   9.1883  14.9009  14.9009

          k = 0.8333-0.1667 0.8333 (  1314 PWs)   bands (ev):

    -3.4358  -1.0153   1.8403   2.9634   8.3051   9.9365  14.8736  15.1980

          k = 0.6667-0.0000 0.6667 (  1316 PWs)   bands (ev):

    -3.2098  -1.2263   1.0288   3.4148   8.8509  13.0348  13.9216  14.7660

          k = 0.0000-1.0000 0.0000 (  1298 PWs)   bands (ev):

    -2.3519  -2.3519   2.6405   2.6405   7.9124   7.9124  18.0083  18.0083

          k = 0.6667-0.3333 1.0000 (  1300 PWs)   bands (ev):

    -4.2315  -0.0335   1.9151   3.2248  10.1881  10.8739  11.7530  14.6701

          k = 0.5000-0.1667 0.8333 (  1302 PWs)   bands (ev):

    -3.1755  -1.2936   1.4790   2.7537  10.5655  10.9794  13.3978  13.9934

          k =-0.3333-1.0000 0.0000 (  1312 PWs)   bands (ev):

    -2.1487  -2.1487   1.8408   1.8408   9.9914   9.9914  14.2159  14.2159

     highest occupied, lowest unoccupied level (ev):     5.4839    7.9124

!    total energy              =     -74.83547941 Ry
     estimated scf accuracy    <          2.0E-10 Ry

     convergence has been achieved in   1 iterations

     Using ACE for calculation of exact exchange
     ACE projected onto     8 (nbndproj) and applied to     8 (nbnd) bands

!!   total energy              =     -74.83547941 Ry
     Harris-Foulkes estimate   =     -74.83547941 Ry
     est. exchange err (dexx)  =          1.3E-09 Ry
     - averaged Fock potential =       1.78319106 Ry
     + Fock energy (ACE)       =      -0.89159682 Ry

     EXX self-consistency reached

     init_run     :      0.91s CPU      0.94s WALL (       1 calls)
     electrons    :     19.61s CPU     19.72s WALL (       6 calls)

     Called by init_run:
     aceinit0     :      0.00s CPU      0.00s WALL (       1 calls)
     wfcinit      :      0.22s CPU      0.23s WALL (       1 calls)
     potinit      :      0.25s CPU      0.27s WALL (       1 calls)
     hinit0       :      0.38s CPU      0.38s WALL (       1 calls)

     Called by electrons:
     c_bands      :      8.67s CPU      8.74s WALL (      25 calls)
     sum_band     :      1.69s CPU      1.71s WALL (      25 calls)
     v_of_rho     :      0.49s CPU      0.49s WALL (      24 calls)
     newd         :      0.53s CPU      0.54s WALL (      23 calls)
     PAW_pot      :      8.91s CPU      8.93s WALL (      24 calls)
     mix_rho      :      0.02s CPU      0.02s WALL (      25 calls)

     Called by c_bands:
     init_us_2    :      0.66s CPU      0.67s WALL (    1680 calls)
     init_us_2:cp :      0.66s CPU      0.66s WALL (    1680 calls)
     cegterg      :      7.87s CPU      7.92s WALL (     400 calls)

     Called by *egterg:
     cdiaghg      :      0.14s CPU      0.14s WALL (    1407 calls)
     h_psi        :      5.30s CPU      5.34s WALL (    1551 calls)
     s_psi        :      0.96s CPU      0.97s WALL (    1551 calls)
     g_psi        :      0.03s CPU      0.03s WALL (    1135 calls)

     Called by h_psi:
     h_psi:calbec :      0.89s CPU      0.90s WALL (    1551 calls)
     vloc_psi     :      3.09s CPU      3.12s WALL (    1551 calls)
     add_vuspsi   :      0.97s CPU      0.97s WALL (    1551 calls)

     General routines
     calbec       :      1.51s CPU      1.52s WALL (    3594 calls)
     fft          :      0.19s CPU      0.19s WALL (     259 calls)
     ffts         :      0.01s CPU      0.01s WALL (      25 calls)
     fftw         :      2.91s CPU      2.94s WALL (   21366 calls)
     fftc         :      2.78s CPU      2.79s WALL (   12288 calls)
     fftcw        :      0.37s CPU      0.37s WALL (    2304 calls)

     Parallel routines

     EXX routines
     exx_grid     :      0.00s CPU      0.00s WALL (       1 calls)
     exxinit      :     15.30s CPU     15.37s WALL (       6 calls)
     vexx         :    198.15s CPU    198.39s WALL (      96 calls)
     matcalc      :      0.23s CPU      0.23s WALL (    1547 calls)
     aceupdate    :      0.01s CPU      0.01s WALL (      96 calls)
     vexxace      :      0.40s CPU      0.41s WALL (    1275 calls)
     aceinit      :    198.19s CPU    198.42s WALL (      96 calls)

     EXX+US  routines
     becxx        :      0.00s CPU      0.00s WALL (       6 calls)
     addusxx      :     98.85s CPU     99.00s WALL (    6144 calls)
     newdxx       :     88.93s CPU     89.02s WALL (    6144 calls)
     qvan_init    :      1.18s CPU      1.19s WALL (      96 calls)
     nlxx_pot     :      0.38s CPU      0.38s WALL (     768 calls)

     EXX+PAW routines
     PAW_newdxx   :      3.33s CPU      3.34s WALL (    6144 calls)

     PWSCF        :   3m54.87s CPU   3m55.31s WALL


   This run was terminated on:   1: 0:11   1Jun2023            

=------------------------------------------------------------------------------=
   JOB DONE.
=------------------------------------------------------------------------------=
