
     Program PWSCF v.7.2 starts on  1Jun2023 at  2:44:29 

     This program is part of the open-source Quantum ESPRESSO suite
     for quantum simulation of materials; please cite
         "P. Giannozzi et al., J. Phys.:Condens. Matter 21 395502 (2009);
         "P. Giannozzi et al., J. Phys.:Condens. Matter 29 465901 (2017);
         "P. Giannozzi et al., J. Chem. Phys. 152 154105 (2020);
          URL http://www.quantum-espresso.org", 
     in publications or presentations arising from this work. More details at
     http://www.quantum-espresso.org/quote

     Parallel version (MPI), running on     1 processors

     MPI processes distributed on     1 nodes
     73 MiB available memory on the printing compute node when the environment starts

     Waiting for input...
     Reading input from standard input

     Current dimensions of program PWSCF are:
     Max number of different atomic species (ntypx) = 10
     Max number of k-points (npk) =  40000
     Max angular momentum in pseudopotentials (lmaxx) =  4
     file Si.pbe-n-kjpaw_psl.1.0.0.UPF: wavefunction(s)  3S 3P renormalized

     IMPORTANT: XC functional enforced from input :
     Exchange-correlation= B3LYP
                           (   7  12   9   7   0   0   0)
     EXX-fraction              =        0.20
     Any further DFT definition will be discarded
     Please, verify this is what you really want

     Message from routine set_cutoff:
     ecutrho < 4*ecutwfc, are you sure?
     Message from routine setup :
     BEWARE: nonlinear core correction is not consistent with hybrid XC
     Message from routine setup:
     Warning: ecutfock not valid for US/PAW, ignored

     Subspace diagonalization in iterative solution of the eigenvalue problem:
     a serial algorithm will be used

     EXX: q-point mesh:     2    2    2
     EXX: setup a grid of 96 q-points centered on each k-point
     (k+q)-points:
   0.0000000   0.0000000   0.0000000         1    1
   0.5000000  -0.5000000   0.5000000         4    1
  -0.5000000  -0.5000000  -0.5000000         4    3
   0.0000000  -1.0000000   0.0000000        13    1
   0.5000000   0.5000000  -0.5000000         4    4
  -1.0000000   0.0000000   0.0000000        13    5
   0.0000000   0.0000000  -1.0000000        13   13
  -0.5000000   0.5000000   0.5000000         4    2
  -0.1666667   0.1666667  -0.1666667         2    1
   0.3333333  -0.3333333   0.3333333         3   -1
  -0.6666667  -0.3333333  -0.6666667         7    3
   0.8333333   0.1666667   0.8333333        11   -3
   0.3333333   0.6666667  -0.6666667         7   -8
  -0.1666667  -0.8333333   0.8333333        11    8
   0.8333333  -0.8333333  -0.1666667        11   15
  -0.6666667   0.6666667   0.3333333         7  -15
  -0.3333333   0.3333333  -0.3333333         3    1
   0.1666667  -0.1666667   0.1666667         2   -1
  -0.8333333  -0.1666667  -0.8333333        11    3
   0.6666667   0.3333333   0.6666667         7   -3
   0.1666667   0.8333333  -0.8333333        11   -8
  -0.3333333  -0.6666667   0.6666667         7    8
   0.6666667  -0.6666667  -0.3333333         7   15
  -0.8333333   0.8333333   0.1666667        11  -15
   0.0000000   0.3333333   0.0000000         5    1
   0.5000000  -0.1666667   0.5000000         8    1
  -0.5000000  -0.1666667  -0.5000000         8    3
   0.0000000  -0.6666667   0.0000000        10   -1
  -0.5000000  -0.1666667   0.5000000         8   -4
   1.0000000   0.3333333   0.0000000        16   -5
   0.0000000   0.3333333   1.0000000        16  -17
   0.5000000  -0.1666667  -0.5000000         8   -2
  -0.1666667   0.5000000  -0.1666667         6    1
   0.3333333   0.0000000   0.3333333         9    1
  -0.6666667   0.0000000  -0.6666667        12   -1
  -0.1666667  -0.5000000  -0.1666667         6   -3
   0.3333333  -1.0000000  -0.6666667        14  -21
  -0.1666667  -0.5000000   0.8333333        15    8
  -0.1666667   0.5000000   0.8333333        15   -6
  -0.6666667  -1.0000000   0.3333333        14   14
   0.6666667  -0.3333333   0.6666667         7    1
   0.1666667   0.1666667   0.1666667         2    3
  -0.8333333   0.1666667  -0.8333333        11   -1
  -0.3333333  -0.3333333  -0.3333333         3   -3
   0.1666667  -0.8333333  -0.8333333        11    6
   0.6666667   0.6666667  -0.3333333         7  -14
  -0.3333333   0.6666667   0.6666667         7   -6
  -0.8333333  -0.8333333   0.1666667        11   14
   0.0000000   0.6666667   0.0000000        10    1
   0.5000000   0.1666667   0.5000000         8   -3
  -0.5000000   0.1666667  -0.5000000         8   -1
   0.0000000  -0.3333333   0.0000000         5   -1
  -0.5000000   0.1666667   0.5000000         8    2
   0.0000000  -0.3333333  -1.0000000        16   17
  -1.0000000  -0.3333333   0.0000000        16    5
   0.5000000   0.1666667  -0.5000000         8    4
   0.8333333  -0.1666667   0.8333333        11    1
   0.3333333   0.3333333   0.3333333         3    3
  -0.6666667   0.3333333  -0.6666667         7   -1
  -0.1666667  -0.1666667  -0.1666667         2   -3
   0.3333333  -0.6666667  -0.6666667         7    6
   0.8333333   0.8333333  -0.1666667        11  -14
  -0.1666667   0.8333333   0.8333333        11   -6
  -0.6666667  -0.6666667   0.3333333         7   14
   0.6666667   0.0000000   0.6666667        12    1
   0.1666667   0.5000000   0.1666667         6    3
   0.1666667  -0.5000000   0.1666667         6   -1
  -0.3333333   0.0000000  -0.3333333         9   -1
   0.1666667  -0.5000000  -0.8333333        15    6
   0.6666667   1.0000000  -0.3333333        14  -14
  -0.3333333   1.0000000   0.6666667        14   21
   0.1666667   0.5000000  -0.8333333        15   -8
   0.6666667  -0.3333333   1.0000000        14    1
   0.1666667   0.1666667   0.5000000         6  -16
  -0.8333333   0.1666667  -0.5000000        15   10
  -0.3333333  -0.3333333   0.0000000         9   14
  -0.8333333   0.1666667   0.5000000        15  -12
   0.6666667   0.6666667   0.0000000        12  -14
  -0.3333333   0.6666667  -1.0000000        14    5
   0.1666667   0.1666667  -0.5000000         6   14
   0.5000000  -0.1666667   0.8333333        15    1
   0.0000000   0.3333333   0.3333333         9   -6
  -1.0000000   0.3333333  -0.6666667        14   10
  -0.5000000  -0.1666667  -0.1666667         6    7
   0.0000000  -0.6666667  -0.6666667        12    6
  -0.5000000  -0.1666667   0.8333333        15   -4
   0.5000000  -0.1666667  -0.1666667         6   -6
  -1.0000000  -0.6666667   0.3333333        14  -17
  -0.3333333  -1.0000000   0.0000000        16    1
   0.1666667   0.5000000   0.5000000         8    7
   0.1666667  -0.5000000   0.5000000         8   -5
  -0.3333333   0.0000000   0.0000000         5   -5
   0.1666667  -0.5000000  -0.5000000         8    6
  -0.3333333   0.0000000   1.0000000        16  -13
   0.6666667   0.0000000   0.0000000        10    5
   0.1666667   0.5000000  -0.5000000         8   -8

     G-vector sticks info
     --------------------
     sticks:   dense  smooth     PW     G-vecs:    dense   smooth      PW
     Sum         637     637    199                10417    10417    1837

     Using Slab Decomposition



     bravais-lattice index     =            2
     lattice parameter (alat)  =      10.2076  a.u.
     unit-cell volume          =     265.8955 (a.u.)^3
     number of atoms/cell      =            2
     number of atomic types    =            1
     number of electrons       =         8.00
     number of Kohn-Sham states=            8
     kinetic-energy cutoff     =      44.0000  Ry
     charge density cutoff     =     175.0000  Ry
     cutoff for Fock operator  =     175.0000  Ry
     scf convergence threshold =      1.0E-06
     mixing beta               =       0.7000
     number of iterations used =            8  plain     mixing
     Exchange-correlation= B3LYP
                           (   7  12   9   7   0   0   0)
     EXX-fraction              =        0.20

     celldm(1)=  10.207600  celldm(2)=   0.000000  celldm(3)=   0.000000
     celldm(4)=   0.000000  celldm(5)=   0.000000  celldm(6)=   0.000000

     crystal axes: (cart. coord. in units of alat)
               a(1) = (  -0.500000   0.000000   0.500000 )  
               a(2) = (   0.000000   0.500000   0.500000 )  
               a(3) = (  -0.500000   0.500000   0.000000 )  

     reciprocal axes: (cart. coord. in units 2 pi/alat)
               b(1) = ( -1.000000 -1.000000  1.000000 )  
               b(2) = (  1.000000  1.000000  1.000000 )  
               b(3) = ( -1.000000  1.000000 -1.000000 )  


     PseudoPot. # 1 for Si read from file:
     ./Si.pbe-n-kjpaw_psl.1.0.0.UPF
     MD5 check sum: c39c59da582df4a0d9f10159256ea34e
     Pseudo is Projector augmented-wave + core cor, Zval =  4.0
     Generated using &quot;atomic&quot; code by A. Dal Corso  v.6.3
     Shape of augmentation charge: PSQ
     Using radial grid of 1141 points,  6 beta functions with: 
                l(1) =   0
                l(2) =   0
                l(3) =   1
                l(4) =   1
                l(5) =   2
                l(6) =   2
     Q(r) pseudized with 0 coefficients 


     atomic species   valence    mass     pseudopotential
        Si             4.00    28.08600     Si( 1.00)

     48 Sym. Ops., with inversion, found (24 have fractional translation)



   Cartesian axes

     site n.     atom                  positions (alat units)
         1           Si  tau(   1) = (   0.0000000   0.0000000   0.0000000  )
         2           Si  tau(   2) = (   0.2500000   0.2500000   0.2500000  )

     number of k points=    16
                       cart. coord. in units 2pi/alat
        k(    1) = (   0.0000000   0.0000000   0.0000000), wk =   0.0092593
        k(    2) = (  -0.1666667   0.1666667  -0.1666667), wk =   0.0740741
        k(    3) = (  -0.3333333   0.3333333  -0.3333333), wk =   0.0740741
        k(    4) = (   0.5000000  -0.5000000   0.5000000), wk =   0.0370370
        k(    5) = (   0.0000000   0.3333333   0.0000000), wk =   0.0555556
        k(    6) = (  -0.1666667   0.5000000  -0.1666667), wk =   0.2222222
        k(    7) = (   0.6666667  -0.3333333   0.6666667), wk =   0.2222222
        k(    8) = (   0.5000000  -0.1666667   0.5000000), wk =   0.2222222
        k(    9) = (   0.3333333   0.0000000   0.3333333), wk =   0.1111111
        k(   10) = (   0.0000000   0.6666667   0.0000000), wk =   0.0555556
        k(   11) = (   0.8333333  -0.1666667   0.8333333), wk =   0.2222222
        k(   12) = (   0.6666667  -0.0000000   0.6666667), wk =   0.1111111
        k(   13) = (   0.0000000  -1.0000000   0.0000000), wk =   0.0277778
        k(   14) = (   0.6666667  -0.3333333   1.0000000), wk =   0.2222222
        k(   15) = (   0.5000000  -0.1666667   0.8333333), wk =   0.2222222
        k(   16) = (  -0.3333333  -1.0000000   0.0000000), wk =   0.1111111

     Dense  grid:    10417 G-vectors     FFT dimensions: (  32,  32,  32)

     Estimated max dynamical RAM per process >     288.55 MB
     EXX: ACE will be initialized later

     Check: negative core charge=   -0.000001

     Initial potential from superposition of free atoms

     starting charge       7.9989, renormalised to       8.0000
     Starting wfcs are    8 randomized atomic wfcs

     total cpu time spent up to now is        1.2 secs

     Self-consistent Calculation

     iteration #  1     ecut=    44.00 Ry     beta= 0.70
     Davidson diagonalization with overlap
     ethr =  1.00E-02,  avg # of iterations =  3.5

     Threshold (ethr) on eigenvalues was too large:
     Diagonalizing with lowered threshold

     Davidson diagonalization with overlap
     ethr =  8.36E-04,  avg # of iterations =  1.2

     total cpu time spent up to now is        2.3 secs

     total energy              =     -94.30133279 Ry
     estimated scf accuracy    <       0.07239304 Ry

     iteration #  2     ecut=    44.00 Ry     beta= 0.70
     Davidson diagonalization with overlap
     ethr =  9.05E-04,  avg # of iterations =  1.2

     total cpu time spent up to now is        2.9 secs

     total energy              =     -94.30601866 Ry
     estimated scf accuracy    <       0.00286399 Ry

     iteration #  3     ecut=    44.00 Ry     beta= 0.70
     Davidson diagonalization with overlap
     ethr =  3.58E-05,  avg # of iterations =  4.5

     total cpu time spent up to now is        3.6 secs

     total energy              =     -94.30635386 Ry
     estimated scf accuracy    <       0.00011191 Ry

     iteration #  4     ecut=    44.00 Ry     beta= 0.70
     Davidson diagonalization with overlap
     ethr =  1.40E-06,  avg # of iterations =  3.8

     total cpu time spent up to now is        4.3 secs

     End of self-consistent calculation

          k = 0.0000 0.0000 0.0000 (  1363 PWs)   bands (ev):

    -5.3251   6.6579   6.6579   6.6579   9.3641   9.3641   9.3641  10.1543

          k =-0.1667 0.1667-0.1667 (  1321 PWs)   bands (ev):

    -4.9627   4.3072   6.2203   6.2203   9.1563  10.0037  10.0037  12.2438

          k =-0.3333 0.3333-0.3333 (  1326 PWs)   bands (ev):

    -3.9460   1.3568   5.6744   5.6744   8.5704  10.3242  10.3244  14.8172

          k = 0.5000-0.5000 0.5000 (  1308 PWs)   bands (ev):

    -2.9985  -0.2718   5.4758   5.4758   8.3433  10.1697  10.1697  14.7786

          k = 0.0000 0.3333 0.0000 (  1319 PWs)   bands (ev):

    -4.8393   4.6268   5.4960   5.4960   8.5352  11.1194  11.1194  11.1397

          k =-0.1667 0.5000-0.1667 (  1315 PWs)   bands (ev):

    -4.0221   2.2389   4.7087   4.9457   8.7945  10.9036  11.3424  11.8688

          k = 0.6667-0.3333 0.6667 (  1310 PWs)   bands (ev):

    -2.8350   0.0789   3.9314   4.9115   8.8819  10.9229  11.4413  13.2728

          k = 0.5000-0.1667 0.5000 (  1315 PWs)   bands (ev):

    -3.2173   0.6745   3.6673   5.3822   9.2798  10.9368  11.0527  14.1536

          k = 0.3333 0.0000 0.3333 (  1313 PWs)   bands (ev):

    -4.3730   2.9560   4.3074   6.1012   9.8449  10.3661  10.6372  12.5241

          k = 0.0000 0.6667 0.0000 (  1299 PWs)   bands (ev):

    -3.4148   1.6430   4.2796   4.2796   7.5791   8.8725  14.0471  14.0472

          k = 0.8333-0.1667 0.8333 (  1314 PWs)   bands (ev):

    -2.2506   0.0846   3.0977   4.1424   7.9253   9.5638  14.2679  14.2886

          k = 0.6667-0.0000 0.6667 (  1316 PWs)   bands (ev):

    -2.0606  -0.1155   2.3304   4.5799   8.4265  12.6396  13.3023  13.8851

          k = 0.0000-1.0000 0.0000 (  1298 PWs)   bands (ev):

    -1.1695  -1.1695   3.8460   3.8460   7.5776   7.5776  16.9407  16.9408

          k = 0.6667-0.3333 1.0000 (  1300 PWs)   bands (ev):

    -3.0312   1.0119   3.1603   4.4136   9.6765  10.5794  11.0474  13.8577

          k = 0.5000-0.1667 0.8333 (  1302 PWs)   bands (ev):

    -2.0512  -0.1829   2.7217   3.9563  10.2013  10.3785  12.9421  13.3626

          k =-0.3333-1.0000 0.0000 (  1312 PWs)   bands (ev):

    -1.0544  -1.0544   3.0862   3.0862   9.5905   9.5905  13.5967  13.5969

     highest occupied, lowest unoccupied level (ev):     6.6579    7.5776

!    total energy              =     -94.30637058 Ry
     estimated scf accuracy    <       0.00000042 Ry

     convergence has been achieved in   4 iterations

     Using ACE for calculation of exact exchange

     EXX grid:    10417 G-vectors     FFT dimensions: (  32,  32,  32)
     ACE projected onto     8 (nbndproj) and applied to     8 (nbnd) bands

     EXX: now go back to refine exchange calculation

     total cpu time spent up to now is      282.5 secs

     Self-consistent Calculation

     iteration #  1     ecut=    44.00 Ry     beta= 0.70
     Davidson diagonalization with overlap
     ethr =  1.40E-06,  avg # of iterations =  6.8

     total cpu time spent up to now is      283.6 secs

     total energy              =     -78.42776305 Ry
     estimated scf accuracy    <       0.00134611 Ry

     iteration #  2     ecut=    44.00 Ry     beta= 0.70
     Davidson diagonalization with overlap
     ethr =  1.68E-05,  avg # of iterations =  2.2

     total cpu time spent up to now is      284.3 secs

     total energy              =     -78.35289478 Ry
     estimated scf accuracy    <       0.00032153 Ry

     iteration #  3     ecut=    44.00 Ry     beta= 0.70
     Davidson diagonalization with overlap
     ethr =  4.02E-06,  avg # of iterations =  2.1

     total cpu time spent up to now is      285.1 secs

     total energy              =     -78.35303817 Ry
     estimated scf accuracy    <       0.00022143 Ry

     iteration #  4     ecut=    44.00 Ry     beta= 0.70
     Davidson diagonalization with overlap
     ethr =  2.77E-06,  avg # of iterations =  1.0

     total cpu time spent up to now is      285.6 secs

     total energy              =     -78.35289860 Ry
     estimated scf accuracy    <       0.00019248 Ry

     iteration #  5     ecut=    44.00 Ry     beta= 0.70
     Davidson diagonalization with overlap
     ethr =  2.41E-06,  avg # of iterations =  1.8

     total cpu time spent up to now is      286.3 secs

     End of self-consistent calculation

          k = 0.0000 0.0000 0.0000 (  1363 PWs)   bands (ev):

    -6.7642   6.0961   6.0961   6.0961  10.2802  10.2802  10.2802  11.6583

          k =-0.1667 0.1667-0.1667 (  1321 PWs)   bands (ev):

    -6.3744   3.7370   5.6621   5.6621  10.2220  10.9207  10.9207  13.6376

          k =-0.3333 0.3333-0.3333 (  1326 PWs)   bands (ev):

    -5.3075   0.6859   5.1062   5.1062   9.6355  11.2042  11.2043  15.9049

          k = 0.5000-0.5000 0.5000 (  1308 PWs)   bands (ev):

    -4.2054  -1.1922   4.8788   4.8789   9.3471  11.0363  11.0363  15.6843

          k = 0.0000 0.3333 0.0000 (  1319 PWs)   bands (ev):

    -6.2420   4.1626   4.8875   4.8875   9.3928  12.1094  12.1094  12.2316

          k =-0.1667 0.5000-0.1667 (  1315 PWs)   bands (ev):

    -5.3823   1.6370   4.1578   4.3220   9.6394  11.8626  12.2946  12.8285

          k = 0.6667-0.3333 0.6667 (  1310 PWs)   bands (ev):

    -4.0352  -0.7860   3.3304   4.2847   9.7406  11.9209  12.3335  14.2335

          k = 0.5000-0.1667 0.5000 (  1315 PWs)   bands (ev):

    -4.4822  -0.0992   3.0320   4.8121  10.2178  11.8930  11.9397  15.2475

          k = 0.3333 0.0000 0.3333 (  1313 PWs)   bands (ev):

    -5.7505   2.3771   3.6767   5.5784  10.8934  11.2650  11.5832  13.6028

          k = 0.0000 0.6667 0.0000 (  1299 PWs)   bands (ev):

    -4.7538   1.0941   3.6300   3.6300   8.3626   9.6639  15.1175  15.1176

          k = 0.8333-0.1667 0.8333 (  1314 PWs)   bands (ev):

    -3.4313  -0.7351   2.4355   3.4825   8.6998  10.3805  15.2667  15.4305

          k = 0.6667-0.0000 0.6667 (  1316 PWs)   bands (ev):

    -3.1785  -0.9994   1.6752   3.9593   9.2365  13.4506  14.3446  15.0332

          k = 0.0000-1.0000 0.0000 (  1298 PWs)   bands (ev):

    -2.1838  -2.1838   3.1617   3.1617   8.3296   8.3296  18.4497  18.4498

          k = 0.6667-0.3333 1.0000 (  1300 PWs)   bands (ev):

    -4.2915   0.2777   2.5097   3.8063  10.5300  11.3669  12.0579  14.9144

          k = 0.5000-0.1667 0.8333 (  1302 PWs)   bands (ev):

    -3.1559  -1.0968   2.0782   3.3046  11.0065  11.3074  13.8280  14.4158

          k =-0.3333-1.0000 0.0000 (  1312 PWs)   bands (ev):

    -2.0570  -2.0570   2.4052   2.4052  10.4129  10.4129  14.6033  14.6037

     highest occupied, lowest unoccupied level (ev):     6.0961    8.3296

!    total energy              =     -78.35292536 Ry
     estimated scf accuracy    <       0.00000069 Ry

     convergence has been achieved in   5 iterations

     Using ACE for calculation of exact exchange
     ACE projected onto     8 (nbndproj) and applied to     8 (nbnd) bands

     total energy              =     -78.35353619 Ry
     Harris-Foulkes estimate   =     -78.35353638 Ry
     est. exchange err (dexx)  =       0.00061083 Ry
     - averaged Fock potential =       1.72443644 Ry
     + Fock energy (ACE)       =      -0.86191357 Ry

     EXX: now go back to refine exchange calculation

     total cpu time spent up to now is      551.4 secs

     Self-consistent Calculation

     iteration #  1     ecut=    44.00 Ry     beta= 0.70
     Davidson diagonalization with overlap
     ethr =  2.41E-06,  avg # of iterations =  2.4

     Threshold (ethr) on eigenvalues was too large:
     Diagonalizing with lowered threshold

     Davidson diagonalization with overlap
     ethr =  2.20E-07,  avg # of iterations =  1.2

     total cpu time spent up to now is      552.4 secs

     total energy              =     -78.35359511 Ry
     estimated scf accuracy    <       0.00001892 Ry

     iteration #  2     ecut=    44.00 Ry     beta= 0.70
     Davidson diagonalization with overlap
     ethr =  2.36E-07,  avg # of iterations =  1.1

     total cpu time spent up to now is      552.9 secs

     End of self-consistent calculation

          k = 0.0000 0.0000 0.0000 (  1363 PWs)   bands (ev):

    -6.7694   6.0715   6.0715   6.0715  10.2821  10.2821  10.2821  11.6819

          k =-0.1667 0.1667-0.1667 (  1321 PWs)   bands (ev):

    -6.3779   3.7304   5.6439   5.6440  10.2304  10.9194  10.9194  13.6496

          k =-0.3333 0.3333-0.3333 (  1326 PWs)   bands (ev):

    -5.3109   0.6816   5.0893   5.0893   9.6457  11.2016  11.2016  15.8988

          k = 0.5000-0.5000 0.5000 (  1308 PWs)   bands (ev):

    -4.2086  -1.2027   4.8594   4.8594   9.3554  11.0330  11.0330  15.6875

          k = 0.0000 0.3333 0.0000 (  1319 PWs)   bands (ev):

    -6.2450   4.1615   4.8720   4.8720   9.3933  12.1054  12.1054  12.2200

          k =-0.1667 0.5000-0.1667 (  1315 PWs)   bands (ev):

    -5.3846   1.6353   4.1510   4.3075   9.6383  11.8561  12.2926  12.8216

          k = 0.6667-0.3333 0.6667 (  1310 PWs)   bands (ev):

    -4.0355  -0.7927   3.3225   4.2688   9.7401  11.9183  12.3249  14.2275

          k = 0.5000-0.1667 0.5000 (  1315 PWs)   bands (ev):

    -4.4830  -0.1035   3.0219   4.7981  10.2203  11.8887  11.9321  15.2460

          k = 0.3333 0.0000 0.3333 (  1313 PWs)   bands (ev):

    -5.7527   2.3752   3.6657   5.5641  10.9008  11.2609  11.5792  13.5995

          k = 0.0000 0.6667 0.0000 (  1299 PWs)   bands (ev):

    -4.7570   1.0966   3.6160   3.6160   8.3615   9.6609  15.1115  15.1115

          k = 0.8333-0.1667 0.8333 (  1314 PWs)   bands (ev):

    -3.4328  -0.7362   2.4238   3.4672   8.6982  10.3742  15.2558  15.4276

          k = 0.6667-0.0000 0.6667 (  1316 PWs)   bands (ev):

    -3.1769  -0.9988   1.6616   3.9451   9.2358  13.4410  14.3406  15.0337

          k = 0.0000-1.0000 0.0000 (  1298 PWs)   bands (ev):

    -2.1890  -2.1890   3.1449   3.1449   8.3293   8.3293  18.4560  18.4560

          k = 0.6667-0.3333 1.0000 (  1300 PWs)   bands (ev):

    -4.2919   0.2775   2.4986   3.7964  10.5236  11.3577  12.0553  14.9073

          k = 0.5000-0.1667 0.8333 (  1302 PWs)   bands (ev):

    -3.1539  -1.0980   2.0670   3.2929  10.9975  11.3034  13.8129  14.4125

          k =-0.3333-1.0000 0.0000 (  1312 PWs)   bands (ev):

    -2.0562  -2.0562   2.3921   2.3921  10.4065  10.4065  14.5966  14.5966

     highest occupied, lowest unoccupied level (ev):     6.0715    8.3293

!    total energy              =     -78.35359728 Ry
     estimated scf accuracy    <       0.00000038 Ry

     convergence has been achieved in   2 iterations

     Using ACE for calculation of exact exchange
     ACE projected onto     8 (nbndproj) and applied to     8 (nbnd) bands

     total energy              =     -78.35360405 Ry
     Harris-Foulkes estimate   =     -78.35360413 Ry
     est. exchange err (dexx)  =       0.00000676 Ry
     - averaged Fock potential =       1.72368247 Ry
     + Fock energy (ACE)       =      -0.86177566 Ry

     EXX: now go back to refine exchange calculation

     total cpu time spent up to now is      818.7 secs

     Self-consistent Calculation

     iteration #  1     ecut=    44.00 Ry     beta= 0.70
     Davidson diagonalization with overlap
     ethr =  2.36E-07,  avg # of iterations =  1.4

     Threshold (ethr) on eigenvalues was too large:
     Diagonalizing with lowered threshold

     Davidson diagonalization with overlap
     ethr =  9.16E-10,  avg # of iterations =  3.9

     total cpu time spent up to now is      819.8 secs

     End of self-consistent calculation

          k = 0.0000 0.0000 0.0000 (  1363 PWs)   bands (ev):

    -6.7696   6.0685   6.0685   6.0685  10.2831  10.2831  10.2831  11.6846

          k =-0.1667 0.1667-0.1667 (  1321 PWs)   bands (ev):

    -6.3778   3.7303   5.6421   5.6421  10.2316  10.9199  10.9199  13.6514

          k =-0.3333 0.3333-0.3333 (  1326 PWs)   bands (ev):

    -5.3107   0.6817   5.0876   5.0876   9.6471  11.2020  11.2020  15.8982

          k = 0.5000-0.5000 0.5000 (  1308 PWs)   bands (ev):

    -4.2085  -1.2036   4.8573   4.8573   9.3569  11.0333  11.0333  15.6883

          k = 0.0000 0.3333 0.0000 (  1319 PWs)   bands (ev):

    -6.2448   4.1620   4.8707   4.8707   9.3937  12.1054  12.1054  12.2190

          k =-0.1667 0.5000-0.1667 (  1315 PWs)   bands (ev):

    -5.3842   1.6357   4.1508   4.3063   9.6384  11.8557  12.2929  12.8213

          k = 0.6667-0.3333 0.6667 (  1310 PWs)   bands (ev):

    -4.0347  -0.7932   3.3223   4.2673   9.7403  11.9184  12.3244  14.2270

          k = 0.5000-0.1667 0.5000 (  1315 PWs)   bands (ev):

    -4.4824  -0.1035   3.0210   4.7971  10.2209  11.8887  11.9317  15.2460

          k = 0.3333 0.0000 0.3333 (  1313 PWs)   bands (ev):

    -5.7524   2.3756   3.6648   5.5630  10.9021  11.2609  11.5792  13.5998

          k = 0.0000 0.6667 0.0000 (  1299 PWs)   bands (ev):

    -4.7568   1.0975   3.6148   3.6148   8.3616   9.6608  15.1114  15.1114

          k = 0.8333-0.1667 0.8333 (  1314 PWs)   bands (ev):

    -3.4321  -0.7358   2.4228   3.4657   8.6984  10.3738  15.2551  15.4278

          k = 0.6667-0.0000 0.6667 (  1316 PWs)   bands (ev):

    -3.1760  -0.9979   1.6601   3.9439   9.2360  13.4403  14.3406  15.0341

          k = 0.0000-1.0000 0.0000 (  1298 PWs)   bands (ev):

    -2.1891  -2.1891   3.1432   3.1432   8.3298   8.3298  18.4573  18.4573

          k = 0.6667-0.3333 1.0000 (  1300 PWs)   bands (ev):

    -4.2911   0.2781   2.4976   3.7959  10.5231  11.3570  12.0554  14.9069

          k = 0.5000-0.1667 0.8333 (  1302 PWs)   bands (ev):

    -3.1528  -1.0974   2.0660   3.2919  10.9968  11.3034  13.8111  14.4124

          k =-0.3333-1.0000 0.0000 (  1312 PWs)   bands (ev):

    -2.0553  -2.0553   2.3909   2.3909  10.4060  10.4060  14.5963  14.5963

     highest occupied, lowest unoccupied level (ev):     6.0685    8.3298

!    total energy              =     -78.35360494 Ry
     estimated scf accuracy    <       0.00000008 Ry

     convergence has been achieved in   1 iterations

     Using ACE for calculation of exact exchange
     ACE projected onto     8 (nbndproj) and applied to     8 (nbnd) bands

!!   total energy              =     -78.35360508 Ry
     Harris-Foulkes estimate   =     -78.35360512 Ry
     est. exchange err (dexx)  =       0.00000013 Ry
     - averaged Fock potential =       1.72355476 Ry
     + Fock energy (ACE)       =      -0.86177923 Ry

     EXX self-consistency reached

     init_run     :      0.97s CPU      1.00s WALL (       1 calls)
     electrons    :      9.38s CPU      9.44s WALL (       4 calls)

     Called by init_run:
     aceinit0     :      0.00s CPU      0.00s WALL (       1 calls)
     wfcinit      :      0.23s CPU      0.23s WALL (       1 calls)
     potinit      :      0.27s CPU      0.27s WALL (       1 calls)
     hinit0       :      0.44s CPU      0.44s WALL (       1 calls)

     Called by electrons:
     c_bands      :      5.01s CPU      5.05s WALL (      15 calls)
     sum_band     :      1.00s CPU      1.01s WALL (      15 calls)
     v_of_rho     :      0.15s CPU      0.15s WALL (      14 calls)
     newd         :      0.28s CPU      0.31s WALL (      13 calls)
     PAW_pot      :      3.45s CPU      3.46s WALL (      14 calls)
     mix_rho      :      0.01s CPU      0.01s WALL (      15 calls)

     Called by c_bands:
     init_us_2    :      0.41s CPU      0.41s WALL (    1072 calls)
     init_us_2:cp :      0.41s CPU      0.41s WALL (    1072 calls)
     cegterg      :      4.55s CPU      4.58s WALL (     240 calls)

     Called by *egterg:
     cdiaghg      :      0.08s CPU      0.08s WALL (     755 calls)
     h_psi        :      3.16s CPU      3.18s WALL (     867 calls)
     s_psi        :      0.56s CPU      0.57s WALL (     867 calls)
     g_psi        :      0.02s CPU      0.02s WALL (     611 calls)

     Called by h_psi:
     h_psi:calbec :      0.52s CPU      0.53s WALL (     867 calls)
     vloc_psi     :      1.88s CPU      1.90s WALL (     867 calls)
     add_vuspsi   :      0.57s CPU      0.57s WALL (     867 calls)

     General routines
     calbec       :      0.88s CPU      0.89s WALL (    2002 calls)
     fft          :      0.17s CPU      0.17s WALL (     151 calls)
     ffts         :      0.00s CPU      0.00s WALL (      15 calls)
     fftw         :      1.79s CPU      1.80s WALL (   12662 calls)
     fftc         :     14.31s CPU     14.39s WALL (   65536 calls)
     fftcw        :      0.23s CPU      0.23s WALL (    1536 calls)

     Parallel routines

     EXX routines
     exx_grid     :      0.01s CPU      0.01s WALL (       1 calls)
     exxinit      :     15.74s CPU     15.99s WALL (       4 calls)
     vexx         :   1056.75s CPU   1058.65s WALL (      64 calls)
     matcalc      :      0.13s CPU      0.13s WALL (     831 calls)
     aceupdate    :      0.01s CPU      0.01s WALL (      64 calls)
     vexxace      :      0.22s CPU      0.22s WALL (     655 calls)
     aceinit      :   1056.77s CPU   1058.67s WALL (      64 calls)

     EXX+US  routines
     becxx        :      0.00s CPU      0.00s WALL (       4 calls)
     addusxx      :    525.68s CPU    526.64s WALL (   32768 calls)
     newdxx       :    470.37s CPU    471.28s WALL (   32768 calls)
     qvan_init    :     16.23s CPU     16.27s WALL (     512 calls)
     nlxx_pot     :      0.25s CPU      0.25s WALL (     512 calls)

     EXX+PAW routines
     PAW_newdxx   :     17.60s CPU     17.71s WALL (   32768 calls)

     PWSCF        :  18m 3.47s CPU  18m 5.75s WALL


   This run was terminated on:   3: 2:35   1Jun2023            

=------------------------------------------------------------------------------=
   JOB DONE.
=------------------------------------------------------------------------------=
