
     Program PWSCF v.7.2 starts on 31May2023 at 23:37:59 

     This program is part of the open-source Quantum ESPRESSO suite
     for quantum simulation of materials; please cite
         "P. Giannozzi et al., J. Phys.:Condens. Matter 21 395502 (2009);
         "P. Giannozzi et al., J. Phys.:Condens. Matter 29 465901 (2017);
         "P. Giannozzi et al., J. Chem. Phys. 152 154105 (2020);
          URL http://www.quantum-espresso.org", 
     in publications or presentations arising from this work. More details at
     http://www.quantum-espresso.org/quote

     Parallel version (MPI), running on     1 processors

     MPI processes distributed on     1 nodes
     182 MiB available memory on the printing compute node when the environment starts

     Reading input from 1.si.scf.in

     Current dimensions of program PWSCF are:
     Max number of different atomic species (ntypx) = 10
     Max number of k-points (npk) =  40000
     Max angular momentum in pseudopotentials (lmaxx) =  4
     file Si.pbe-n-kjpaw_psl.1.0.0.UPF: wavefunction(s)  3S 3P renormalized

     Subspace diagonalization in iterative solution of the eigenvalue problem:
     a serial algorithm will be used


     G-vector sticks info
     --------------------
     sticks:   dense  smooth     PW     G-vecs:    dense   smooth      PW
     Sum        1789     859    253                50237    16625    2741

     Using Slab Decomposition



     bravais-lattice index     =            2
     lattice parameter (alat)  =      10.2076  a.u.
     unit-cell volume          =     265.8955 (a.u.)^3
     number of atoms/cell      =            2
     number of atomic types    =            1
     number of electrons       =         8.00
     number of Kohn-Sham states=           30
     kinetic-energy cutoff     =      60.0000  Ry
     charge density cutoff     =     500.0000  Ry
     scf convergence threshold =      1.0E-08
     mixing beta               =       0.3000
     number of iterations used =            8  plain     mixing
     Exchange-correlation= SLA  PW   PBX  PBC
                           (   1   4   3   4   0   0   0)

     celldm(1)=  10.207600  celldm(2)=   0.000000  celldm(3)=   0.000000
     celldm(4)=   0.000000  celldm(5)=   0.000000  celldm(6)=   0.000000

     crystal axes: (cart. coord. in units of alat)
               a(1) = (  -0.500000   0.000000   0.500000 )  
               a(2) = (   0.000000   0.500000   0.500000 )  
               a(3) = (  -0.500000   0.500000   0.000000 )  

     reciprocal axes: (cart. coord. in units 2 pi/alat)
               b(1) = ( -1.000000 -1.000000  1.000000 )  
               b(2) = (  1.000000  1.000000  1.000000 )  
               b(3) = ( -1.000000  1.000000 -1.000000 )  


     PseudoPot. # 1 for Si read from file:
     ./Si.pbe-n-kjpaw_psl.1.0.0.UPF
     MD5 check sum: c39c59da582df4a0d9f10159256ea34e
     Pseudo is Projector augmented-wave + core cor, Zval =  4.0
     Generated using &quot;atomic&quot; code by A. Dal Corso  v.6.3
     Shape of augmentation charge: PSQ
     Using radial grid of 1141 points,  6 beta functions with: 
                l(1) =   0
                l(2) =   0
                l(3) =   1
                l(4) =   1
                l(5) =   2
                l(6) =   2
     Q(r) pseudized with 0 coefficients 


     atomic species   valence    mass     pseudopotential
        Si             4.00    28.08600     Si( 1.00)

     48 Sym. Ops., with inversion, found (24 have fractional translation)


                                    s                        frac. trans.

      isym =  1     identity                                     

 cryst.   s( 1) = (     1          0          0      )
                  (     0          1          0      )
                  (     0          0          1      )

 cart.    s( 1) = (  1.0000000  0.0000000  0.0000000 )
                  (  0.0000000  1.0000000  0.0000000 )
                  (  0.0000000  0.0000000  1.0000000 )


      isym =  2     180 deg rotation - cart. axis [0,0,1]        

 cryst.   s( 2) = (     0          1         -1      )
                  (     1          0         -1      )
                  (     0          0         -1      )

 cart.    s( 2) = ( -1.0000000  0.0000000  0.0000000 )
                  (  0.0000000 -1.0000000  0.0000000 )
                  (  0.0000000  0.0000000  1.0000000 )


      isym =  3     180 deg rotation - cart. axis [0,1,0]        

 cryst.   s( 3) = (    -1          0          0      )
                  (    -1          0          1      )
                  (    -1          1          0      )

 cart.    s( 3) = ( -1.0000000  0.0000000  0.0000000 )
                  (  0.0000000  1.0000000  0.0000000 )
                  (  0.0000000  0.0000000 -1.0000000 )


      isym =  4     180 deg rotation - cart. axis [1,0,0]        

 cryst.   s( 4) = (     0         -1          1      )
                  (     0         -1          0      )
                  (     1         -1          0      )

 cart.    s( 4) = (  1.0000000  0.0000000  0.0000000 )
                  (  0.0000000 -1.0000000  0.0000000 )
                  (  0.0000000  0.0000000 -1.0000000 )


      isym =  5     180 deg rotation - cart. axis [1,1,0]        

 cryst.   s( 5) = (     0         -1          0      )    f =(  0.2500000 )
                  (    -1          0          0      )       (  0.2500000 )
                  (     0          0         -1      )       (  0.2500000 )

 cart.    s( 5) = (  0.0000000  1.0000000  0.0000000 )    f =( -0.2500000 )
                  (  1.0000000  0.0000000  0.0000000 )       (  0.2500000 )
                  (  0.0000000  0.0000000 -1.0000000 )       (  0.2500000 )


      isym =  6     180 deg rotation - cart. axis [1,-1,0]       

 cryst.   s( 6) = (    -1          0          1      )    f =(  0.2500000 )
                  (     0         -1          1      )       (  0.2500000 )
                  (     0          0          1      )       (  0.2500000 )

 cart.    s( 6) = (  0.0000000 -1.0000000  0.0000000 )    f =( -0.2500000 )
                  ( -1.0000000  0.0000000  0.0000000 )       (  0.2500000 )
                  (  0.0000000  0.0000000 -1.0000000 )       (  0.2500000 )


      isym =  7      90 deg rotation - cart. axis [0,0,-1]       

 cryst.   s( 7) = (     0          1          0      )    f =(  0.2500000 )
                  (     0          1         -1      )       (  0.2500000 )
                  (    -1          1          0      )       (  0.2500000 )

 cart.    s( 7) = (  0.0000000  1.0000000  0.0000000 )    f =( -0.2500000 )
                  ( -1.0000000  0.0000000  0.0000000 )       (  0.2500000 )
                  (  0.0000000  0.0000000  1.0000000 )       (  0.2500000 )


      isym =  8      90 deg rotation - cart. axis [0,0,1]        

 cryst.   s( 8) = (     1          0         -1      )    f =(  0.2500000 )
                  (     1          0          0      )       (  0.2500000 )
                  (     1         -1          0      )       (  0.2500000 )

 cart.    s( 8) = (  0.0000000 -1.0000000  0.0000000 )    f =( -0.2500000 )
                  (  1.0000000  0.0000000  0.0000000 )       (  0.2500000 )
                  (  0.0000000  0.0000000  1.0000000 )       (  0.2500000 )


      isym =  9     180 deg rotation - cart. axis [1,0,1]        

 cryst.   s( 9) = (    -1          0          0      )    f =(  0.2500000 )
                  (     0          0         -1      )       (  0.2500000 )
                  (     0         -1          0      )       (  0.2500000 )

 cart.    s( 9) = (  0.0000000  0.0000000  1.0000000 )    f =( -0.2500000 )
                  (  0.0000000 -1.0000000  0.0000000 )       (  0.2500000 )
                  (  1.0000000  0.0000000  0.0000000 )       (  0.2500000 )


      isym = 10     180 deg rotation - cart. axis [-1,0,1]       

 cryst.   s(10) = (     1          0          0      )    f =(  0.2500000 )
                  (     1         -1          0      )       (  0.2500000 )
                  (     1          0         -1      )       (  0.2500000 )

 cart.    s(10) = (  0.0000000  0.0000000 -1.0000000 )    f =( -0.2500000 )
                  (  0.0000000 -1.0000000  0.0000000 )       (  0.2500000 )
                  ( -1.0000000  0.0000000  0.0000000 )       (  0.2500000 )


      isym = 11      90 deg rotation - cart. axis [0,1,0]        

 cryst.   s(11) = (     0          1         -1      )    f =(  0.2500000 )
                  (    -1          1          0      )       (  0.2500000 )
                  (     0          1          0      )       (  0.2500000 )

 cart.    s(11) = (  0.0000000  0.0000000  1.0000000 )    f =( -0.2500000 )
                  (  0.0000000  1.0000000  0.0000000 )       (  0.2500000 )
                  ( -1.0000000  0.0000000  0.0000000 )       (  0.2500000 )


      isym = 12      90 deg rotation - cart. axis [0,-1,0]       

 cryst.   s(12) = (     0         -1          1      )    f =(  0.2500000 )
                  (     0          0          1      )       (  0.2500000 )
                  (    -1          0          1      )       (  0.2500000 )

 cart.    s(12) = (  0.0000000  0.0000000 -1.0000000 )    f =( -0.2500000 )
                  (  0.0000000  1.0000000  0.0000000 )       (  0.2500000 )
                  (  1.0000000  0.0000000  0.0000000 )       (  0.2500000 )


      isym = 13     180 deg rotation - cart. axis [0,1,1]        

 cryst.   s(13) = (    -1          1          0      )    f =(  0.2500000 )
                  (     0          1          0      )       (  0.2500000 )
                  (     0          1         -1      )       (  0.2500000 )

 cart.    s(13) = ( -1.0000000  0.0000000  0.0000000 )    f =( -0.2500000 )
                  (  0.0000000  0.0000000  1.0000000 )       (  0.2500000 )
                  (  0.0000000  1.0000000  0.0000000 )       (  0.2500000 )


      isym = 14     180 deg rotation - cart. axis [0,1,-1]       

 cryst.   s(14) = (     0          0         -1      )    f =(  0.2500000 )
                  (     0         -1          0      )       (  0.2500000 )
                  (    -1          0          0      )       (  0.2500000 )

 cart.    s(14) = ( -1.0000000  0.0000000  0.0000000 )    f =( -0.2500000 )
                  (  0.0000000  0.0000000 -1.0000000 )       (  0.2500000 )
                  (  0.0000000 -1.0000000  0.0000000 )       (  0.2500000 )


      isym = 15      90 deg rotation - cart. axis [-1,0,0]       

 cryst.   s(15) = (     0          0          1      )    f =(  0.2500000 )
                  (    -1          0          1      )       (  0.2500000 )
                  (     0         -1          1      )       (  0.2500000 )

 cart.    s(15) = (  1.0000000  0.0000000  0.0000000 )    f =( -0.2500000 )
                  (  0.0000000  0.0000000  1.0000000 )       (  0.2500000 )
                  (  0.0000000 -1.0000000  0.0000000 )       (  0.2500000 )


      isym = 16      90 deg rotation - cart. axis [1,0,0]        

 cryst.   s(16) = (     1         -1          0      )    f =(  0.2500000 )
                  (     1          0         -1      )       (  0.2500000 )
                  (     1          0          0      )       (  0.2500000 )

 cart.    s(16) = (  1.0000000  0.0000000  0.0000000 )    f =( -0.2500000 )
                  (  0.0000000  0.0000000 -1.0000000 )       (  0.2500000 )
                  (  0.0000000  1.0000000  0.0000000 )       (  0.2500000 )


      isym = 17     120 deg rotation - cart. axis [-1,-1,-1]     

 cryst.   s(17) = (    -1          0          1      )
                  (    -1          1          0      )
                  (    -1          0          0      )

 cart.    s(17) = (  0.0000000  1.0000000  0.0000000 )
                  (  0.0000000  0.0000000  1.0000000 )
                  (  1.0000000  0.0000000  0.0000000 )


      isym = 18     120 deg rotation - cart. axis [-1,1,1]       

 cryst.   s(18) = (     0          1          0      )
                  (     0          0          1      )
                  (     1          0          0      )

 cart.    s(18) = (  0.0000000 -1.0000000  0.0000000 )
                  (  0.0000000  0.0000000  1.0000000 )
                  ( -1.0000000  0.0000000  0.0000000 )


      isym = 19     120 deg rotation - cart. axis [1,1,-1]       

 cryst.   s(19) = (     1          0         -1      )
                  (     0          0         -1      )
                  (     0          1         -1      )

 cart.    s(19) = (  0.0000000  1.0000000  0.0000000 )
                  (  0.0000000  0.0000000 -1.0000000 )
                  ( -1.0000000  0.0000000  0.0000000 )


      isym = 20     120 deg rotation - cart. axis [1,-1,1]       

 cryst.   s(20) = (     0         -1          0      )
                  (     1         -1          0      )
                  (     0         -1          1      )

 cart.    s(20) = (  0.0000000 -1.0000000  0.0000000 )
                  (  0.0000000  0.0000000 -1.0000000 )
                  (  1.0000000  0.0000000  0.0000000 )


      isym = 21     120 deg rotation - cart. axis [1,1,1]        

 cryst.   s(21) = (     0          0         -1      )
                  (     0          1         -1      )
                  (     1          0         -1      )

 cart.    s(21) = (  0.0000000  0.0000000  1.0000000 )
                  (  1.0000000  0.0000000  0.0000000 )
                  (  0.0000000  1.0000000  0.0000000 )


      isym = 22     120 deg rotation - cart. axis [-1,1,-1]      

 cryst.   s(22) = (    -1          1          0      )
                  (    -1          0          0      )
                  (    -1          0          1      )

 cart.    s(22) = (  0.0000000  0.0000000  1.0000000 )
                  ( -1.0000000  0.0000000  0.0000000 )
                  (  0.0000000 -1.0000000  0.0000000 )


      isym = 23     120 deg rotation - cart. axis [1,-1,-1]      

 cryst.   s(23) = (     0          0          1      )
                  (     1          0          0      )
                  (     0          1          0      )

 cart.    s(23) = (  0.0000000  0.0000000 -1.0000000 )
                  ( -1.0000000  0.0000000  0.0000000 )
                  (  0.0000000  1.0000000  0.0000000 )


      isym = 24     120 deg rotation - cart. axis [-1,-1,1]      

 cryst.   s(24) = (     1         -1          0      )
                  (     0         -1          1      )
                  (     0         -1          0      )

 cart.    s(24) = (  0.0000000  0.0000000 -1.0000000 )
                  (  1.0000000  0.0000000  0.0000000 )
                  (  0.0000000 -1.0000000  0.0000000 )


      isym = 25     inversion                                    

 cryst.   s(25) = (    -1          0          0      )    f =(  0.2500000 )
                  (     0         -1          0      )       (  0.2500000 )
                  (     0          0         -1      )       (  0.2500000 )

 cart.    s(25) = ( -1.0000000  0.0000000  0.0000000 )    f =( -0.2500000 )
                  (  0.0000000 -1.0000000  0.0000000 )       (  0.2500000 )
                  (  0.0000000  0.0000000 -1.0000000 )       (  0.2500000 )


      isym = 26     inv. 180 deg rotation - cart. axis [0,0,1]   

 cryst.   s(26) = (     0         -1          1      )    f =(  0.2500000 )
                  (    -1          0          1      )       (  0.2500000 )
                  (     0          0          1      )       (  0.2500000 )

 cart.    s(26) = (  1.0000000  0.0000000  0.0000000 )    f =( -0.2500000 )
                  (  0.0000000  1.0000000  0.0000000 )       (  0.2500000 )
                  (  0.0000000  0.0000000 -1.0000000 )       (  0.2500000 )


      isym = 27     inv. 180 deg rotation - cart. axis [0,1,0]   

 cryst.   s(27) = (     1          0          0      )    f =(  0.2500000 )
                  (     1          0         -1      )       (  0.2500000 )
                  (     1         -1          0      )       (  0.2500000 )

 cart.    s(27) = (  1.0000000  0.0000000  0.0000000 )    f =( -0.2500000 )
                  (  0.0000000 -1.0000000  0.0000000 )       (  0.2500000 )
                  (  0.0000000  0.0000000  1.0000000 )       (  0.2500000 )


      isym = 28     inv. 180 deg rotation - cart. axis [1,0,0]   

 cryst.   s(28) = (     0          1         -1      )    f =(  0.2500000 )
                  (     0          1          0      )       (  0.2500000 )
                  (    -1          1          0      )       (  0.2500000 )

 cart.    s(28) = ( -1.0000000  0.0000000  0.0000000 )    f =( -0.2500000 )
                  (  0.0000000  1.0000000  0.0000000 )       (  0.2500000 )
                  (  0.0000000  0.0000000  1.0000000 )       (  0.2500000 )


      isym = 29     inv. 180 deg rotation - cart. axis [1,1,0]   

 cryst.   s(29) = (     0          1          0      )
                  (     1          0          0      )
                  (     0          0          1      )

 cart.    s(29) = (  0.0000000 -1.0000000  0.0000000 )
                  ( -1.0000000  0.0000000  0.0000000 )
                  (  0.0000000  0.0000000  1.0000000 )


      isym = 30     inv. 180 deg rotation - cart. axis [1,-1,0]  

 cryst.   s(30) = (     1          0         -1      )
                  (     0          1         -1      )
                  (     0          0         -1      )

 cart.    s(30) = (  0.0000000  1.0000000  0.0000000 )
                  (  1.0000000  0.0000000  0.0000000 )
                  (  0.0000000  0.0000000  1.0000000 )


      isym = 31     inv.  90 deg rotation - cart. axis [0,0,-1]  

 cryst.   s(31) = (     0         -1          0      )
                  (     0         -1          1      )
                  (     1         -1          0      )

 cart.    s(31) = (  0.0000000 -1.0000000  0.0000000 )
                  (  1.0000000  0.0000000  0.0000000 )
                  (  0.0000000  0.0000000 -1.0000000 )


      isym = 32     inv.  90 deg rotation - cart. axis [0,0,1]   

 cryst.   s(32) = (    -1          0          1      )
                  (    -1          0          0      )
                  (    -1          1          0      )

 cart.    s(32) = (  0.0000000  1.0000000  0.0000000 )
                  ( -1.0000000  0.0000000  0.0000000 )
                  (  0.0000000  0.0000000 -1.0000000 )


      isym = 33     inv. 180 deg rotation - cart. axis [1,0,1]   

 cryst.   s(33) = (     1          0          0      )
                  (     0          0          1      )
                  (     0          1          0      )

 cart.    s(33) = (  0.0000000  0.0000000 -1.0000000 )
                  (  0.0000000  1.0000000  0.0000000 )
                  ( -1.0000000  0.0000000  0.0000000 )


      isym = 34     inv. 180 deg rotation - cart. axis [-1,0,1]  

 cryst.   s(34) = (    -1          0          0      )
                  (    -1          1          0      )
                  (    -1          0          1      )

 cart.    s(34) = (  0.0000000  0.0000000  1.0000000 )
                  (  0.0000000  1.0000000  0.0000000 )
                  (  1.0000000  0.0000000  0.0000000 )


      isym = 35     inv.  90 deg rotation - cart. axis [0,1,0]   

 cryst.   s(35) = (     0         -1          1      )
                  (     1         -1          0      )
                  (     0         -1          0      )

 cart.    s(35) = (  0.0000000  0.0000000 -1.0000000 )
                  (  0.0000000 -1.0000000  0.0000000 )
                  (  1.0000000  0.0000000  0.0000000 )


      isym = 36     inv.  90 deg rotation - cart. axis [0,-1,0]  

 cryst.   s(36) = (     0          1         -1      )
                  (     0          0         -1      )
                  (     1          0         -1      )

 cart.    s(36) = (  0.0000000  0.0000000  1.0000000 )
                  (  0.0000000 -1.0000000  0.0000000 )
                  ( -1.0000000  0.0000000  0.0000000 )


      isym = 37     inv. 180 deg rotation - cart. axis [0,1,1]   

 cryst.   s(37) = (     1         -1          0      )
                  (     0         -1          0      )
                  (     0         -1          1      )

 cart.    s(37) = (  1.0000000  0.0000000  0.0000000 )
                  (  0.0000000  0.0000000 -1.0000000 )
                  (  0.0000000 -1.0000000  0.0000000 )


      isym = 38     inv. 180 deg rotation - cart. axis [0,1,-1]  

 cryst.   s(38) = (     0          0          1      )
                  (     0          1          0      )
                  (     1          0          0      )

 cart.    s(38) = (  1.0000000  0.0000000  0.0000000 )
                  (  0.0000000  0.0000000  1.0000000 )
                  (  0.0000000  1.0000000  0.0000000 )


      isym = 39     inv.  90 deg rotation - cart. axis [-1,0,0]  

 cryst.   s(39) = (     0          0         -1      )
                  (     1          0         -1      )
                  (     0          1         -1      )

 cart.    s(39) = ( -1.0000000  0.0000000  0.0000000 )
                  (  0.0000000  0.0000000 -1.0000000 )
                  (  0.0000000  1.0000000  0.0000000 )


      isym = 40     inv.  90 deg rotation - cart. axis [1,0,0]   

 cryst.   s(40) = (    -1          1          0      )
                  (    -1          0          1      )
                  (    -1          0          0      )

 cart.    s(40) = ( -1.0000000  0.0000000  0.0000000 )
                  (  0.0000000  0.0000000  1.0000000 )
                  (  0.0000000 -1.0000000  0.0000000 )


      isym = 41     inv. 120 deg rotation - cart. axis [-1,-1,-1]

 cryst.   s(41) = (     1          0         -1      )    f =(  0.2500000 )
                  (     1         -1          0      )       (  0.2500000 )
                  (     1          0          0      )       (  0.2500000 )

 cart.    s(41) = (  0.0000000 -1.0000000  0.0000000 )    f =( -0.2500000 )
                  (  0.0000000  0.0000000 -1.0000000 )       (  0.2500000 )
                  ( -1.0000000  0.0000000  0.0000000 )       (  0.2500000 )


      isym = 42     inv. 120 deg rotation - cart. axis [-1,1,1]  

 cryst.   s(42) = (     0         -1          0      )    f =(  0.2500000 )
                  (     0          0         -1      )       (  0.2500000 )
                  (    -1          0          0      )       (  0.2500000 )

 cart.    s(42) = (  0.0000000  1.0000000  0.0000000 )    f =( -0.2500000 )
                  (  0.0000000  0.0000000 -1.0000000 )       (  0.2500000 )
                  (  1.0000000  0.0000000  0.0000000 )       (  0.2500000 )


      isym = 43     inv. 120 deg rotation - cart. axis [1,1,-1]  

 cryst.   s(43) = (    -1          0          1      )    f =(  0.2500000 )
                  (     0          0          1      )       (  0.2500000 )
                  (     0         -1          1      )       (  0.2500000 )

 cart.    s(43) = (  0.0000000 -1.0000000  0.0000000 )    f =( -0.2500000 )
                  (  0.0000000  0.0000000  1.0000000 )       (  0.2500000 )
                  (  1.0000000  0.0000000  0.0000000 )       (  0.2500000 )


      isym = 44     inv. 120 deg rotation - cart. axis [1,-1,1]  

 cryst.   s(44) = (     0          1          0      )    f =(  0.2500000 )
                  (    -1          1          0      )       (  0.2500000 )
                  (     0          1         -1      )       (  0.2500000 )

 cart.    s(44) = (  0.0000000  1.0000000  0.0000000 )    f =( -0.2500000 )
                  (  0.0000000  0.0000000  1.0000000 )       (  0.2500000 )
                  ( -1.0000000  0.0000000  0.0000000 )       (  0.2500000 )


      isym = 45     inv. 120 deg rotation - cart. axis [1,1,1]   

 cryst.   s(45) = (     0          0          1      )    f =(  0.2500000 )
                  (     0         -1          1      )       (  0.2500000 )
                  (    -1          0          1      )       (  0.2500000 )

 cart.    s(45) = (  0.0000000  0.0000000 -1.0000000 )    f =( -0.2500000 )
                  ( -1.0000000  0.0000000  0.0000000 )       (  0.2500000 )
                  (  0.0000000 -1.0000000  0.0000000 )       (  0.2500000 )


      isym = 46     inv. 120 deg rotation - cart. axis [-1,1,-1] 

 cryst.   s(46) = (     1         -1          0      )    f =(  0.2500000 )
                  (     1          0          0      )       (  0.2500000 )
                  (     1          0         -1      )       (  0.2500000 )

 cart.    s(46) = (  0.0000000  0.0000000 -1.0000000 )    f =( -0.2500000 )
                  (  1.0000000  0.0000000  0.0000000 )       (  0.2500000 )
                  (  0.0000000  1.0000000  0.0000000 )       (  0.2500000 )


      isym = 47     inv. 120 deg rotation - cart. axis [1,-1,-1] 

 cryst.   s(47) = (     0          0         -1      )    f =(  0.2500000 )
                  (    -1          0          0      )       (  0.2500000 )
                  (     0         -1          0      )       (  0.2500000 )

 cart.    s(47) = (  0.0000000  0.0000000  1.0000000 )    f =( -0.2500000 )
                  (  1.0000000  0.0000000  0.0000000 )       (  0.2500000 )
                  (  0.0000000 -1.0000000  0.0000000 )       (  0.2500000 )


      isym = 48     inv. 120 deg rotation - cart. axis [-1,-1,1] 

 cryst.   s(48) = (    -1          1          0      )    f =(  0.2500000 )
                  (     0          1         -1      )       (  0.2500000 )
                  (     0          1          0      )       (  0.2500000 )

 cart.    s(48) = (  0.0000000  0.0000000  1.0000000 )    f =( -0.2500000 )
                  ( -1.0000000  0.0000000  0.0000000 )       (  0.2500000 )
                  (  0.0000000  1.0000000  0.0000000 )       (  0.2500000 )


     point group O_h (m-3m) 
     there are 10 classes
     the character table:

       E     8C3   3C2   6C4   6C2'  i     8S6   3s_h  6S4   6s_d 
A_1g   1.00  1.00  1.00  1.00  1.00  1.00  1.00  1.00  1.00  1.00
A_2g   1.00  1.00  1.00 -1.00 -1.00  1.00  1.00  1.00 -1.00 -1.00
E_g    2.00 -1.00  2.00  0.00  0.00  2.00 -1.00  2.00  0.00  0.00
T_1g   3.00  0.00 -1.00  1.00 -1.00  3.00  0.00 -1.00  1.00 -1.00
T_2g   3.00  0.00 -1.00 -1.00  1.00  3.00  0.00 -1.00 -1.00  1.00
A_1u   1.00  1.00  1.00  1.00  1.00 -1.00 -1.00 -1.00 -1.00 -1.00
A_2u   1.00  1.00  1.00 -1.00 -1.00 -1.00 -1.00 -1.00  1.00  1.00
E_u    2.00 -1.00  2.00  0.00  0.00 -2.00  1.00 -2.00  0.00  0.00
T_1u   3.00  0.00 -1.00  1.00 -1.00 -3.00  0.00  1.00 -1.00  1.00
T_2u   3.00  0.00 -1.00 -1.00  1.00 -3.00  0.00  1.00  1.00 -1.00

     the symmetry operations in each class and the name of the first element:

     E        1
          identity                                               
     8C3     17   19   20   18   24   21   22   23
          120 deg rotation - cart. axis [-1,-1,-1]               
     3C2      2    4    3
          180 deg rotation - cart. axis [0,0,1]                  
     6C4      7    8   15   16   12   11
           90 deg rotation - cart. axis [0,0,-1]                 
     6C2'     5    6   14   13   10    9
          180 deg rotation - cart. axis [1,1,0]                  
     i       25
          inversion                                              
     8S6     41   43   44   42   48   45   46   47
          inv. 120 deg rotation - cart. axis [-1,-1,-1]          
     3s_h    26   28   27
          inv. 180 deg rotation - cart. axis [0,0,1]             
     6S4     31   32   39   40   36   35
          inv.  90 deg rotation - cart. axis [0,0,-1]            
     6s_d    29   30   38   37   34   33
          inv. 180 deg rotation - cart. axis [1,1,0]             

   Cartesian axes

     site n.     atom                  positions (alat units)
         1           Si  tau(   1) = (   0.0000000   0.0000000   0.0000000  )
         2           Si  tau(   2) = (   0.2500000   0.2500000   0.2500000  )

   Crystallographic axes

     site n.     atom                  positions (cryst. coord.)
         1           Si  tau(   1) = (  0.0000000  0.0000000  0.0000000  )
         2           Si  tau(   2) = ( -0.2500000  0.7500000 -0.2500000  )

     number of k points=    72
                       cart. coord. in units 2pi/alat
        k(    1) = (   0.0000000   0.0000000   0.0000000), wk =   0.0011574
        k(    2) = (  -0.0833333   0.0833333  -0.0833333), wk =   0.0092593
        k(    3) = (  -0.1666667   0.1666667  -0.1666667), wk =   0.0092593
        k(    4) = (  -0.2500000   0.2500000  -0.2500000), wk =   0.0092593
        k(    5) = (  -0.3333333   0.3333333  -0.3333333), wk =   0.0092593
        k(    6) = (  -0.4166667   0.4166667  -0.4166667), wk =   0.0092593
        k(    7) = (   0.5000000  -0.5000000   0.5000000), wk =   0.0046296
        k(    8) = (   0.0000000   0.1666667   0.0000000), wk =   0.0069444
        k(    9) = (  -0.0833333   0.2500000  -0.0833333), wk =   0.0277778
        k(   10) = (  -0.1666667   0.3333333  -0.1666667), wk =   0.0277778
        k(   11) = (  -0.2500000   0.4166667  -0.2500000), wk =   0.0277778
        k(   12) = (  -0.3333333   0.5000000  -0.3333333), wk =   0.0277778
        k(   13) = (   0.5833333  -0.4166667   0.5833333), wk =   0.0277778
        k(   14) = (   0.5000000  -0.3333333   0.5000000), wk =   0.0277778
        k(   15) = (   0.4166667  -0.2500000   0.4166667), wk =   0.0277778
        k(   16) = (   0.3333333  -0.1666667   0.3333333), wk =   0.0277778
        k(   17) = (   0.2500000  -0.0833333   0.2500000), wk =   0.0277778
        k(   18) = (   0.1666667  -0.0000000   0.1666667), wk =   0.0138889
        k(   19) = (   0.0000000   0.3333333   0.0000000), wk =   0.0069444
        k(   20) = (  -0.0833333   0.4166667  -0.0833333), wk =   0.0277778
        k(   21) = (  -0.1666667   0.5000000  -0.1666667), wk =   0.0277778
        k(   22) = (  -0.2500000   0.5833333  -0.2500000), wk =   0.0277778
        k(   23) = (   0.6666667  -0.3333333   0.6666667), wk =   0.0277778
        k(   24) = (   0.5833333  -0.2500000   0.5833333), wk =   0.0277778
        k(   25) = (   0.5000000  -0.1666667   0.5000000), wk =   0.0277778
        k(   26) = (   0.4166667  -0.0833333   0.4166667), wk =   0.0277778
        k(   27) = (   0.3333333   0.0000000   0.3333333), wk =   0.0138889
        k(   28) = (   0.0000000   0.5000000   0.0000000), wk =   0.0069444
        k(   29) = (  -0.0833333   0.5833333  -0.0833333), wk =   0.0277778
        k(   30) = (  -0.1666667   0.6666667  -0.1666667), wk =   0.0277778
        k(   31) = (   0.7500000  -0.2500000   0.7500000), wk =   0.0277778
        k(   32) = (   0.6666667  -0.1666667   0.6666667), wk =   0.0277778
        k(   33) = (   0.5833333  -0.0833333   0.5833333), wk =   0.0277778
        k(   34) = (   0.5000000   0.0000000   0.5000000), wk =   0.0138889
        k(   35) = (   0.0000000   0.6666667   0.0000000), wk =   0.0069444
        k(   36) = (  -0.0833333   0.7500000  -0.0833333), wk =   0.0277778
        k(   37) = (   0.8333333  -0.1666667   0.8333333), wk =   0.0277778
        k(   38) = (   0.7500000  -0.0833333   0.7500000), wk =   0.0277778
        k(   39) = (   0.6666667  -0.0000000   0.6666667), wk =   0.0138889
        k(   40) = (   0.0000000   0.8333333   0.0000000), wk =   0.0069444
        k(   41) = (   0.9166667  -0.0833333   0.9166667), wk =   0.0277778
        k(   42) = (   0.8333333   0.0000000   0.8333333), wk =   0.0138889
        k(   43) = (   0.0000000  -1.0000000   0.0000000), wk =   0.0034722
        k(   44) = (  -0.1666667   0.3333333   0.0000000), wk =   0.0277778
        k(   45) = (  -0.2500000   0.4166667  -0.0833333), wk =   0.0555556
        k(   46) = (  -0.3333333   0.5000000  -0.1666667), wk =   0.0555556
        k(   47) = (   0.5833333  -0.4166667   0.7500000), wk =   0.0555556
        k(   48) = (   0.5000000  -0.3333333   0.6666667), wk =   0.0277778
        k(   49) = (  -0.1666667   0.5000000   0.0000000), wk =   0.0277778
        k(   50) = (  -0.2500000   0.5833333  -0.0833333), wk =   0.0555556
        k(   51) = (   0.6666667  -0.3333333   0.8333333), wk =   0.0555556
        k(   52) = (   0.5833333  -0.2500000   0.7500000), wk =   0.0555556
        k(   53) = (   0.5000000  -0.1666667   0.6666667), wk =   0.0555556
        k(   54) = (   0.4166667  -0.0833333   0.5833333), wk =   0.0555556
        k(   55) = (   0.3333333   0.0000000   0.5000000), wk =   0.0277778
        k(   56) = (  -0.1666667   0.6666667  -0.0000000), wk =   0.0277778
        k(   57) = (   0.7500000  -0.2500000   0.9166667), wk =   0.0555556
        k(   58) = (   0.6666667  -0.1666667   0.8333333), wk =   0.0555556
        k(   59) = (   0.5833333  -0.0833333   0.7500000), wk =   0.0555556
        k(   60) = (   0.5000000   0.0000000   0.6666667), wk =   0.0277778
        k(   61) = (   0.8333333  -0.1666667   1.0000000), wk =   0.0277778
        k(   62) = (   0.7500000  -0.0833333   0.9166667), wk =   0.0555556
        k(   63) = (   0.6666667   0.0000000   0.8333333), wk =   0.0277778
        k(   64) = (  -0.1666667  -1.0000000  -0.0000000), wk =   0.0138889
        k(   65) = (   0.6666667  -0.3333333   1.0000000), wk =   0.0277778
        k(   66) = (   0.5833333  -0.2500000   0.9166667), wk =   0.0555556
        k(   67) = (   0.5000000  -0.1666667   0.8333333), wk =   0.0277778
        k(   68) = (   0.6666667  -0.1666667   1.0000000), wk =   0.0277778
        k(   69) = (   0.5833333  -0.0833333   0.9166667), wk =   0.0555556
        k(   70) = (   0.5000000   0.0000000   0.8333333), wk =   0.0277778
        k(   71) = (  -0.3333333  -1.0000000   0.0000000), wk =   0.0138889
        k(   72) = (  -0.5000000  -1.0000000   0.0000000), wk =   0.0069444

                       cryst. coord.
        k(    1) = (   0.0000000   0.0000000   0.0000000), wk =   0.0011574
        k(    2) = (   0.0000000   0.0000000   0.0833333), wk =   0.0092593
        k(    3) = (   0.0000000   0.0000000   0.1666667), wk =   0.0092593
        k(    4) = (   0.0000000   0.0000000   0.2500000), wk =   0.0092593
        k(    5) = (   0.0000000   0.0000000   0.3333333), wk =   0.0092593
        k(    6) = (   0.0000000   0.0000000   0.4166667), wk =   0.0092593
        k(    7) = (   0.0000000   0.0000000  -0.5000000), wk =   0.0046296
        k(    8) = (   0.0000000   0.0833333   0.0833333), wk =   0.0069444
        k(    9) = (   0.0000000   0.0833333   0.1666667), wk =   0.0277778
        k(   10) = (   0.0000000   0.0833333   0.2500000), wk =   0.0277778
        k(   11) = (   0.0000000   0.0833333   0.3333333), wk =   0.0277778
        k(   12) = (   0.0000000   0.0833333   0.4166667), wk =   0.0277778
        k(   13) = (   0.0000000   0.0833333  -0.5000000), wk =   0.0277778
        k(   14) = (   0.0000000   0.0833333  -0.4166667), wk =   0.0277778
        k(   15) = (   0.0000000   0.0833333  -0.3333333), wk =   0.0277778
        k(   16) = (   0.0000000   0.0833333  -0.2500000), wk =   0.0277778
        k(   17) = (   0.0000000   0.0833333  -0.1666667), wk =   0.0277778
        k(   18) = (   0.0000000   0.0833333  -0.0833333), wk =   0.0138889
        k(   19) = (   0.0000000   0.1666667   0.1666667), wk =   0.0069444
        k(   20) = (   0.0000000   0.1666667   0.2500000), wk =   0.0277778
        k(   21) = (   0.0000000   0.1666667   0.3333333), wk =   0.0277778
        k(   22) = (   0.0000000   0.1666667   0.4166667), wk =   0.0277778
        k(   23) = (   0.0000000   0.1666667  -0.5000000), wk =   0.0277778
        k(   24) = (   0.0000000   0.1666667  -0.4166667), wk =   0.0277778
        k(   25) = (   0.0000000   0.1666667  -0.3333333), wk =   0.0277778
        k(   26) = (   0.0000000   0.1666667  -0.2500000), wk =   0.0277778
        k(   27) = (   0.0000000   0.1666667  -0.1666667), wk =   0.0138889
        k(   28) = (   0.0000000   0.2500000   0.2500000), wk =   0.0069444
        k(   29) = (   0.0000000   0.2500000   0.3333333), wk =   0.0277778
        k(   30) = (   0.0000000   0.2500000   0.4166667), wk =   0.0277778
        k(   31) = (   0.0000000   0.2500000  -0.5000000), wk =   0.0277778
        k(   32) = (   0.0000000   0.2500000  -0.4166667), wk =   0.0277778
        k(   33) = (   0.0000000   0.2500000  -0.3333333), wk =   0.0277778
        k(   34) = (   0.0000000   0.2500000  -0.2500000), wk =   0.0138889
        k(   35) = (   0.0000000   0.3333333   0.3333333), wk =   0.0069444
        k(   36) = (   0.0000000   0.3333333   0.4166667), wk =   0.0277778
        k(   37) = (   0.0000000   0.3333333  -0.5000000), wk =   0.0277778
        k(   38) = (   0.0000000   0.3333333  -0.4166667), wk =   0.0277778
        k(   39) = (   0.0000000   0.3333333  -0.3333333), wk =   0.0138889
        k(   40) = (   0.0000000   0.4166667   0.4166667), wk =   0.0069444
        k(   41) = (   0.0000000   0.4166667  -0.5000000), wk =   0.0277778
        k(   42) = (   0.0000000   0.4166667  -0.4166667), wk =   0.0138889
        k(   43) = (   0.0000000  -0.5000000  -0.5000000), wk =   0.0034722
        k(   44) = (   0.0833333   0.1666667   0.2500000), wk =   0.0277778
        k(   45) = (   0.0833333   0.1666667   0.3333333), wk =   0.0555556
        k(   46) = (   0.0833333   0.1666667   0.4166667), wk =   0.0555556
        k(   47) = (   0.0833333   0.1666667  -0.5000000), wk =   0.0555556
        k(   48) = (   0.0833333   0.1666667  -0.4166667), wk =   0.0277778
        k(   49) = (   0.0833333   0.2500000   0.3333333), wk =   0.0277778
        k(   50) = (   0.0833333   0.2500000   0.4166667), wk =   0.0555556
        k(   51) = (   0.0833333   0.2500000  -0.5000000), wk =   0.0555556
        k(   52) = (   0.0833333   0.2500000  -0.4166667), wk =   0.0555556
        k(   53) = (   0.0833333   0.2500000  -0.3333333), wk =   0.0555556
        k(   54) = (   0.0833333   0.2500000  -0.2500000), wk =   0.0555556
        k(   55) = (   0.0833333   0.2500000  -0.1666667), wk =   0.0277778
        k(   56) = (   0.0833333   0.3333333   0.4166667), wk =   0.0277778
        k(   57) = (   0.0833333   0.3333333  -0.5000000), wk =   0.0555556
        k(   58) = (   0.0833333   0.3333333  -0.4166667), wk =   0.0555556
        k(   59) = (   0.0833333   0.3333333  -0.3333333), wk =   0.0555556
        k(   60) = (   0.0833333   0.3333333  -0.2500000), wk =   0.0277778
        k(   61) = (   0.0833333   0.4166667  -0.5000000), wk =   0.0277778
        k(   62) = (   0.0833333   0.4166667  -0.4166667), wk =   0.0555556
        k(   63) = (   0.0833333   0.4166667  -0.3333333), wk =   0.0277778
        k(   64) = (   0.0833333  -0.5000000  -0.4166667), wk =   0.0138889
        k(   65) = (   0.1666667   0.3333333  -0.5000000), wk =   0.0277778
        k(   66) = (   0.1666667   0.3333333  -0.4166667), wk =   0.0555556
        k(   67) = (   0.1666667   0.3333333  -0.3333333), wk =   0.0277778
        k(   68) = (   0.1666667   0.4166667  -0.4166667), wk =   0.0277778
        k(   69) = (   0.1666667   0.4166667  -0.3333333), wk =   0.0555556
        k(   70) = (   0.1666667   0.4166667  -0.2500000), wk =   0.0277778
        k(   71) = (   0.1666667  -0.5000000  -0.3333333), wk =   0.0138889
        k(   72) = (   0.2500000  -0.5000000  -0.2500000), wk =   0.0069444

     Dense  grid:    50237 G-vectors     FFT dimensions: (  60,  60,  60)

     Smooth grid:    16625 G-vectors     FFT dimensions: (  36,  36,  36)

     Dynamical RAM for                 wfc:       0.96 MB

     Dynamical RAM for     wfc (w. buffer):      69.74 MB

     Dynamical RAM for           str. fact:       0.77 MB

     Dynamical RAM for           local pot:       0.00 MB

     Dynamical RAM for          nlocal pot:       1.15 MB

     Dynamical RAM for                qrad:       1.79 MB

     Dynamical RAM for          rho,v,vnew:       7.24 MB

     Dynamical RAM for               rhoin:       2.41 MB

     Dynamical RAM for            rho*nmix:      12.26 MB

     Dynamical RAM for           G-vectors:       3.00 MB

     Dynamical RAM for          h,s,v(r/c):       0.16 MB

     Dynamical RAM for          <psi|beta>:       0.02 MB

     Dynamical RAM for                 psi:       1.91 MB

     Dynamical RAM for                hpsi:       1.91 MB

     Dynamical RAM for                spsi:       1.91 MB

     Dynamical RAM for      wfcinit/wfcrot:       1.93 MB

     Dynamical RAM for           addusdens:     144.11 MB

     Estimated static dynamical RAM per process >      95.88 MB

     Estimated max dynamical RAM per process >     252.26 MB

     Initial potential from superposition of free atoms

     starting charge       7.9989, renormalised to       8.0000
     Starting wfcs are    8 randomized atomic wfcs +   22 random wfcs
     Checking if some PAW data can be deallocated... 

     total cpu time spent up to now is        5.8 secs

     Self-consistent Calculation

     iteration #  1     ecut=    60.00 Ry     beta= 0.30
     Davidson diagonalization with overlap

---- Real-time Memory Report at c_bands before calling an iterative solver
           206 MiB given to the printing process from OS
             0 MiB allocation reported by mallinfo(arena+hblkhd)
           154 MiB available memory on the node where the printing process lives
------------------
     ethr =  1.00E-02,  avg # of iterations =  6.9

     Threshold (ethr) on eigenvalues was too large:
     Diagonalizing with lowered threshold

     Davidson diagonalization with overlap

---- Real-time Memory Report at c_bands before calling an iterative solver
           278 MiB given to the printing process from OS
             0 MiB allocation reported by mallinfo(arena+hblkhd)
           208 MiB available memory on the node where the printing process lives
------------------
     ethr =  7.28E-04,  avg # of iterations =  1.1

     total cpu time spent up to now is       48.1 secs

     total energy              =     -93.45626294 Ry
     estimated scf accuracy    <       0.05825594 Ry

     iteration #  2     ecut=    60.00 Ry     beta= 0.30
     Davidson diagonalization with overlap

---- Real-time Memory Report at c_bands before calling an iterative solver
           280 MiB given to the printing process from OS
             0 MiB allocation reported by mallinfo(arena+hblkhd)
           202 MiB available memory on the node where the printing process lives
------------------
     ethr =  7.28E-04,  avg # of iterations =  1.2

     total cpu time spent up to now is       59.4 secs

     total energy              =     -93.45117481 Ry
     estimated scf accuracy    <       0.02380904 Ry

     iteration #  3     ecut=    60.00 Ry     beta= 0.30
     Davidson diagonalization with overlap

---- Real-time Memory Report at c_bands before calling an iterative solver
           281 MiB given to the printing process from OS
             0 MiB allocation reported by mallinfo(arena+hblkhd)
           201 MiB available memory on the node where the printing process lives
------------------
     ethr =  2.98E-04,  avg # of iterations =  1.2

     total cpu time spent up to now is       70.7 secs

     total energy              =     -93.45244545 Ry
     estimated scf accuracy    <       0.00035427 Ry

     iteration #  4     ecut=    60.00 Ry     beta= 0.30
     Davidson diagonalization with overlap

---- Real-time Memory Report at c_bands before calling an iterative solver
           281 MiB given to the printing process from OS
             0 MiB allocation reported by mallinfo(arena+hblkhd)
           201 MiB available memory on the node where the printing process lives
------------------
     ethr =  4.43E-06,  avg # of iterations =  5.6

     total cpu time spent up to now is       85.1 secs

     total energy              =     -93.45246393 Ry
     estimated scf accuracy    <       0.00000261 Ry

     iteration #  5     ecut=    60.00 Ry     beta= 0.30
     Davidson diagonalization with overlap

---- Real-time Memory Report at c_bands before calling an iterative solver
           282 MiB given to the printing process from OS
             0 MiB allocation reported by mallinfo(arena+hblkhd)
           200 MiB available memory on the node where the printing process lives
------------------
     ethr =  3.26E-08,  avg # of iterations =  2.0

     total cpu time spent up to now is       98.0 secs

     total energy              =     -93.45246483 Ry
     estimated scf accuracy    <       0.00000036 Ry

     iteration #  6     ecut=    60.00 Ry     beta= 0.30
     Davidson diagonalization with overlap

---- Real-time Memory Report at c_bands before calling an iterative solver
           282 MiB given to the printing process from OS
             0 MiB allocation reported by mallinfo(arena+hblkhd)
           200 MiB available memory on the node where the printing process lives
------------------
     ethr =  4.56E-09,  avg # of iterations =  1.4

     total cpu time spent up to now is      109.7 secs

     total energy              =     -93.45246489 Ry
     estimated scf accuracy    <       0.00000001 Ry

     iteration #  7     ecut=    60.00 Ry     beta= 0.30
     Davidson diagonalization with overlap

---- Real-time Memory Report at c_bands before calling an iterative solver
           283 MiB given to the printing process from OS
             0 MiB allocation reported by mallinfo(arena+hblkhd)
           199 MiB available memory on the node where the printing process lives
------------------
     ethr =  1.42E-10,  avg # of iterations =  2.0

     total cpu time spent up to now is      123.2 secs

     End of self-consistent calculation

          k = 0.0000 0.0000 0.0000 (  2085 PWs)   bands (ev):

    -5.7031   6.3719   6.3719   6.3719   8.9411   8.9411   8.9411   9.9177
    14.1062  14.1062  14.4011  17.6866  17.6866  17.6866  21.8843  29.5695
    29.5695  29.5695  30.6344  30.6344  32.4540  32.4540  32.4540  36.0032
    36.0032  36.0032  41.2053  41.2053  41.2053  44.9858

     occupation numbers 
     1.0000   1.0000   1.0000   1.0000   0.0000   0.0000   0.0000   0.0000
     0.0000   0.0000   0.0000   0.0000   0.0000   0.0000   0.0000   0.0000
     0.0000   0.0000   0.0000   0.0000   0.0000   0.0000   0.0000   0.0000
     0.0000   0.0000   0.0000   0.0000   0.0000   0.0000

          k =-0.0833 0.0833-0.0833 (  2085 PWs)   bands (ev):

    -5.6109   5.5116   6.2255   6.2255   9.0103   9.1563   9.1563  10.5551
    13.8340  13.8340  14.7904  17.3620  18.2587  18.2587  22.4927  28.6197
    28.6197  28.7007  30.3206  30.3206  32.7908  32.7908  33.1801  36.0881
    37.0841  37.0841  40.0849  40.9929  40.9929  44.2044

     occupation numbers 
     1.0000   1.0000   1.0000   1.0000   0.0000   0.0000   0.0000   0.0000
     0.0000   0.0000   0.0000   0.0000   0.0000   0.0000   0.0000   0.0000
     0.0000   0.0000   0.0000   0.0000   0.0000   0.0000   0.0000   0.0000
     0.0000   0.0000   0.0000   0.0000   0.0000   0.0000

          k =-0.1667 0.1667-0.1667 (  2088 PWs)   bands (ev):

    -5.3370   3.9764   5.9143   5.9143   8.7725   9.5979   9.5979  11.9654
    13.4643  13.4643  15.5354  17.0976  19.5824  19.5824  23.8570  26.4719
    26.4719  27.1625  30.3508  30.3508  33.0772  33.0772  34.3325  36.3369
    37.7627  39.0805  39.0805  40.4641  40.4641  42.1281

     occupation numbers 
     1.0000   1.0000   1.0000   1.0000   0.0000   0.0000   0.0000   0.0000
     0.0000   0.0000   0.0000   0.0000   0.0000   0.0000   0.0000   0.0000
     0.0000   0.0000   0.0000   0.0000   0.0000   0.0000   0.0000   0.0000
     0.0000   0.0000   0.0000   0.0000   0.0000   0.0000

          k =-0.2500 0.2500-0.2500 (  2085 PWs)   bands (ev):

    -4.8921   2.4126   5.6012   5.6012   8.4545   9.8908   9.8908  13.4236
    13.5807  13.5807  15.4280  18.3225  21.1099  21.1099  24.3739  24.3739
    24.5347  26.6333  30.4818  30.4818  33.2889  33.2889  34.3619  36.0567
    36.7269  38.4899  38.4899  39.9818  39.9819  41.0030

     occupation numbers 
     1.0000   1.0000   1.0000   1.0000   0.0000   0.0000   0.0000   0.0000
     0.0000   0.0000   0.0000   0.0000   0.0000   0.0000   0.0000   0.0000
     0.0000   0.0000   0.0000   0.0000   0.0000   0.0000   0.0000   0.0000
     0.0000   0.0000   0.0000   0.0000   0.0000   0.0000

          k =-0.3333 0.3333-0.3333 (  2090 PWs)   bands (ev):

    -4.3060   0.9869   5.3581   5.3581   8.1898   9.8824   9.8824  14.3062
    14.3871  14.3871  15.6132  20.1401  21.0894  21.0894  23.3656  24.1752
    24.1752  28.4692  30.4938  30.4938  31.7950  33.4281  33.4281  36.0258
    36.0258  36.4437  37.2039  39.3482  39.3482  40.5105

     occupation numbers 
     1.0000   1.0000   1.0000   1.0000   0.0000   0.0000   0.0000   0.0000
     0.0000   0.0000   0.0000   0.0000   0.0000   0.0000   0.0000   0.0000
     0.0000   0.0000   0.0000   0.0000   0.0000   0.0000   0.0000   0.0000
     0.0000   0.0000   0.0000   0.0000   0.0000   0.0000

          k =-0.4167 0.4167-0.4167 (  2078 PWs)   bands (ev):

    -3.6737  -0.1606   5.2085   5.2085   8.0218   9.7624   9.7624  14.2146
    15.6906  15.6906  16.8970  19.2965  19.2965  20.4356  23.8341  26.0900
    26.0900  28.9507  29.9093  29.9093  30.7552  33.2752  33.2752  34.3670
    34.3670  36.0137  37.6465  39.0259  39.0259  39.8343

     occupation numbers 
     1.0000   1.0000   1.0000   1.0000   0.0000   0.0000   0.0000   0.0000
     0.0000   0.0000   0.0000   0.0000   0.0000   0.0000   0.0000   0.0000
     0.0000   0.0000   0.0000   0.0000   0.0000   0.0000   0.0000   0.0000
     0.0000   0.0000   0.0000   0.0000   0.0000   0.0000

          k = 0.5000-0.5000 0.5000 (  2060 PWs)   bands (ev):

    -3.3314  -0.6764   5.1583   5.1583   7.9647   9.7053   9.7053  14.1281
    16.9672  16.9672  17.8153  17.8153  17.8669  19.6087  25.9019  26.5404
    28.1520  28.1520  28.3259  28.3259  32.2404  32.9884  32.9884  34.0803
    34.0803  34.9705  37.8410  38.9746  38.9746  39.5110

     occupation numbers 
     1.0000   1.0000   1.0000   1.0000   0.0000   0.0000   0.0000   0.0000
     0.0000   0.0000   0.0000   0.0000   0.0000   0.0000   0.0000   0.0000
     0.0000   0.0000   0.0000   0.0000   0.0000   0.0000   0.0000   0.0000
     0.0000   0.0000   0.0000   0.0000   0.0000   0.0000

          k = 0.0000 0.1667 0.0000 (  2081 PWs)   bands (ev):

    -5.5800   5.6892   5.9329   5.9329   8.6633   9.5312   9.5312  10.5428
    13.3363  14.2423  14.9205  17.8992  17.8992  18.2245  22.7451  28.2203
    28.2203  29.4040  29.7277  29.8943  32.8317  33.1585  33.1585  36.9034
    36.9034  37.2797  40.4658  40.4658  40.4799  43.4182

     occupation numbers 
     1.0000   1.0000   1.0000   1.0000   0.0000   0.0000   0.0000   0.0000
     0.0000   0.0000   0.0000   0.0000   0.0000   0.0000   0.0000   0.0000
     0.0000   0.0000   0.0000   0.0000   0.0000   0.0000   0.0000   0.0000
     0.0000   0.0000   0.0000   0.0000   0.0000   0.0000

          k =-0.0833 0.2500-0.0833 (  2076 PWs)   bands (ev):

    -5.3661   4.4398   5.5632   5.7639   8.6885   9.6458  10.0773  11.3795
    13.0285  14.1846  15.6555  17.5043  18.6378  19.4695  23.9192  26.3622
    26.6931  28.7967  29.0592  29.7609  32.8879  33.4874  34.1895  37.2281
    38.3650  38.4081  39.1687  39.6938  40.3774  41.7275

     occupation numbers 
     1.0000   1.0000   1.0000   1.0000   0.0000   0.0000   0.0000   0.0000
     0.0000   0.0000   0.0000   0.0000   0.0000   0.0000   0.0000   0.0000
     0.0000   0.0000   0.0000   0.0000   0.0000   0.0000   0.0000   0.0000
     0.0000   0.0000   0.0000   0.0000   0.0000   0.0000

          k =-0.1667 0.3333-0.1667 (  2082 PWs)   bands (ev):

    -4.9767   2.9194   5.2462   5.4373   8.8351   9.6261  10.4633  11.8032
    13.8739  14.2487  15.9872  17.9614  19.9969  21.1136  24.1452  24.6072
    25.4530  27.4308  29.1748  29.9374  32.8635  33.7437  34.8199  36.3324
    37.5075  38.6728  38.8296  39.7844  40.2095  40.4768

     occupation numbers 
     1.0000   1.0000   1.0000   1.0000   0.0000   0.0000   0.0000   0.0000
     0.0000   0.0000   0.0000   0.0000   0.0000   0.0000   0.0000   0.0000
     0.0000   0.0000   0.0000   0.0000   0.0000   0.0000   0.0000   0.0000
     0.0000   0.0000   0.0000   0.0000   0.0000   0.0000

          k =-0.2500 0.4167-0.2500 (  2081 PWs)   bands (ev):

    -4.4326   1.4638   5.0344   5.0801   8.7072   9.6858  10.4772  12.3704
    14.9222  15.1117  15.7895  19.5863  20.6601  21.9072  23.0725  23.7921
    24.8521  28.3047  29.3410  30.1756  32.5428  32.6147  33.9748  36.4790
    36.7529  37.1538  37.9184  38.4900  39.2042  40.1417

     occupation numbers 
     1.0000   1.0000   1.0000   1.0000   0.0000   0.0000   0.0000   0.0000
     0.0000   0.0000   0.0000   0.0000   0.0000   0.0000   0.0000   0.0000
     0.0000   0.0000   0.0000   0.0000   0.0000   0.0000   0.0000   0.0000
     0.0000   0.0000   0.0000   0.0000   0.0000   0.0000

          k =-0.3333 0.5000-0.3333 (  2076 PWs)   bands (ev):

    -3.7961   0.2150   4.7799   4.9446   8.5466   9.6397  10.2717  13.4348
    15.1333  16.1267  17.0010  19.0708  19.7718  21.6635  23.4725  24.6689
    25.9566  29.3294  29.3686  30.2274  30.6410  31.9057  34.1321  34.7692
    35.0404  36.7445  37.5187  38.3230  38.6048  39.8053

     occupation numbers 
     1.0000   1.0000   1.0000   1.0000   0.0000   0.0000   0.0000   0.0000
     0.0000   0.0000   0.0000   0.0000   0.0000   0.0000   0.0000   0.0000
     0.0000   0.0000   0.0000   0.0000   0.0000   0.0000   0.0000   0.0000
     0.0000   0.0000   0.0000   0.0000   0.0000   0.0000

          k = 0.5833-0.4167 0.5833 (  2083 PWs)   bands (ev):

    -3.2941  -0.5695   4.5714   4.9771   8.4694   9.6359  10.0657  14.3392
    15.4594  16.9303  17.9122  17.9646  18.8380  20.5527  25.2544  26.8480
    26.8671  27.9503  28.4782  28.8959  32.0209  32.3436  32.6451  34.2992
    34.6077  35.6403  37.4811  37.6214  38.9142  39.7033

     occupation numbers 
     1.0000   1.0000   1.0000   1.0000   0.0000   0.0000   0.0000   0.0000
     0.0000   0.0000   0.0000   0.0000   0.0000   0.0000   0.0000   0.0000
     0.0000   0.0000   0.0000   0.0000   0.0000   0.0000   0.0000   0.0000
     0.0000   0.0000   0.0000   0.0000   0.0000   0.0000

          k = 0.5000-0.3333 0.5000 (  2082 PWs)   bands (ev):

    -3.4181  -0.3880   4.4734   5.1231   8.4993   9.7524   9.9534  14.4478
    15.3721  15.9311  17.6392  18.5505  19.6196  20.5684  24.3539  26.0845
    27.4710  27.9584  28.8730  29.3323  31.7984  31.8498  33.3405  34.1236
    34.5140  36.0927  37.4554  37.7285  39.0148  39.8986

     occupation numbers 
     1.0000   1.0000   1.0000   1.0000   0.0000   0.0000   0.0000   0.0000
     0.0000   0.0000   0.0000   0.0000   0.0000   0.0000   0.0000   0.0000
     0.0000   0.0000   0.0000   0.0000   0.0000   0.0000   0.0000   0.0000
     0.0000   0.0000   0.0000   0.0000   0.0000   0.0000

          k = 0.4167-0.2500 0.4167 (  2080 PWs)   bands (ev):

    -4.0119   0.6013   4.4991   5.3665   8.6345   9.9253   9.9672  13.9255
    13.9718  15.5446  17.0048  19.1330  20.9793  21.4830  23.1186  24.0157
    25.6305  29.3753  29.6019  30.1214  30.7120  32.5398  33.8703  35.1481
    35.6078  36.6556  37.9515  37.9832  39.1560  40.0868

     occupation numbers 
     1.0000   1.0000   1.0000   1.0000   0.0000   0.0000   0.0000   0.0000
     0.0000   0.0000   0.0000   0.0000   0.0000   0.0000   0.0000   0.0000
     0.0000   0.0000   0.0000   0.0000   0.0000   0.0000   0.0000   0.0000
     0.0000   0.0000   0.0000   0.0000   0.0000   0.0000

          k = 0.3333-0.1667 0.3333 (  2084 PWs)   bands (ev):

    -4.6299   1.9347   4.6586   5.6811   8.8610   9.8521  10.1307  12.9635
    13.0409  15.5083  15.8240  18.9048  20.6188  22.3388  22.5610  24.5860
    24.9246  27.5978  29.4310  29.9121  33.0887  33.2337  33.9773  36.4588
    36.6839  37.8961  38.1441  38.8022  39.6406  40.5419

     occupation numbers 
     1.0000   1.0000   1.0000   1.0000   0.0000   0.0000   0.0000   0.0000
     0.0000   0.0000   0.0000   0.0000   0.0000   0.0000   0.0000   0.0000
     0.0000   0.0000   0.0000   0.0000   0.0000   0.0000   0.0000   0.0000
     0.0000   0.0000   0.0000   0.0000   0.0000   0.0000

          k = 0.2500-0.0833 0.2500 (  2079 PWs)   bands (ev):

    -5.1259   3.4128   4.9638   6.0151   9.1410   9.5550   9.9285  12.2108
    12.8127  14.3582  16.0495  17.5660  19.3021  20.9717  24.2516  24.7081
    26.6906  27.1901  29.1680  29.8281  33.1676  33.3065  35.1853  36.7399
    37.1441  38.8671  39.1960  40.2239  40.2717  40.9175

     occupation numbers 
     1.0000   1.0000   1.0000   1.0000   0.0000   0.0000   0.0000   0.0000
     0.0000   0.0000   0.0000   0.0000   0.0000   0.0000   0.0000   0.0000
     0.0000   0.0000   0.0000   0.0000   0.0000   0.0000   0.0000   0.0000
     0.0000   0.0000   0.0000   0.0000   0.0000   0.0000

          k = 0.1667-0.0000 0.1667 (  2077 PWs)   bands (ev):

    -5.4579   4.7813   5.4911   6.2535   9.1936   9.3545   9.3572  11.3315
    13.1984  13.9598  15.3600  17.5147  18.1454  19.4289  23.3654  26.5224
    28.2690  28.5208  29.2683  29.9736  32.9778  33.1083  34.0971  36.8401
    37.5418  38.7820  38.9442  39.8728  41.0744  42.5917

     occupation numbers 
     1.0000   1.0000   1.0000   1.0000   0.0000   0.0000   0.0000   0.0000
     0.0000   0.0000   0.0000   0.0000   0.0000   0.0000   0.0000   0.0000
     0.0000   0.0000   0.0000   0.0000   0.0000   0.0000   0.0000   0.0000
     0.0000   0.0000   0.0000   0.0000   0.0000   0.0000

          k = 0.0000 0.3333 0.0000 (  2061 PWs)   bands (ev):

    -5.2124   4.3452   5.1576   5.1576   8.0708  10.7368  10.7521  10.7521
    13.0791  14.6504  16.2231  18.5251  18.5251  19.1113  24.9132  26.0131
    26.0131  27.1504  28.4822  30.2560  33.1558  33.7858  33.7858  38.4491
    38.4491  38.6058  39.2770  39.2770  39.5041  40.3310

     occupation numbers 
     1.0000   1.0000   1.0000   1.0000   0.0000   0.0000   0.0000   0.0000
     0.0000   0.0000   0.0000   0.0000   0.0000   0.0000   0.0000   0.0000
     0.0000   0.0000   0.0000   0.0000   0.0000   0.0000   0.0000   0.0000
     0.0000   0.0000   0.0000   0.0000   0.0000   0.0000

          k =-0.0833 0.4167-0.0833 (  2070 PWs)   bands (ev):

    -4.8807   3.2405   4.8110   4.8186   8.0915  10.3056  11.0844  11.3201
    14.1080  14.8830  16.9837  18.3876  19.3494  20.5494  24.1106  24.5427
    26.2622  26.8875  27.9859  30.0325  32.8089  33.9652  34.5015  36.4148
    37.3506  38.0228  38.9125  39.5295  40.3712  41.2029

     occupation numbers 
     1.0000   1.0000   1.0000   1.0000   0.0000   0.0000   0.0000   0.0000
     0.0000   0.0000   0.0000   0.0000   0.0000   0.0000   0.0000   0.0000
     0.0000   0.0000   0.0000   0.0000   0.0000   0.0000   0.0000   0.0000
     0.0000   0.0000   0.0000   0.0000   0.0000   0.0000

          k =-0.1667 0.5000-0.1667 (  2090 PWs)   bands (ev):

    -4.3854   1.9087   4.3552   4.5976   8.3351  10.4786  10.9223  11.4807
    15.4801  15.6537  16.8731  19.3764  20.1986  21.7757  22.5300  23.5527
    26.3949  27.1095  28.3100  30.0151  32.1252  32.9795  34.0151  36.2199
    36.4834  36.7163  38.3967  38.9455  39.7715  40.6552

     occupation numbers 
     1.0000   1.0000   1.0000   1.0000   0.0000   0.0000   0.0000   0.0000
     0.0000   0.0000   0.0000   0.0000   0.0000   0.0000   0.0000   0.0000
     0.0000   0.0000   0.0000   0.0000   0.0000   0.0000   0.0000   0.0000
     0.0000   0.0000   0.0000   0.0000   0.0000   0.0000

          k =-0.2500 0.5833-0.2500 (  2094 PWs)   bands (ev):

    -3.7676   0.6540   3.9109   4.5134   8.3811  10.6818  11.2892  11.4498
    16.3319  16.6138  17.3702  18.9449  19.7701  21.9824  23.5520  24.6582
    25.4777  27.3825  28.7368  30.1651  31.0870  31.7722  33.8264  34.7312
    36.1010  36.4951  37.1244  37.7290  39.3444  40.5542

     occupation numbers 
     1.0000   1.0000   1.0000   1.0000   0.0000   0.0000   0.0000   0.0000
     0.0000   0.0000   0.0000   0.0000   0.0000   0.0000   0.0000   0.0000
     0.0000   0.0000   0.0000   0.0000   0.0000   0.0000   0.0000   0.0000
     0.0000   0.0000   0.0000   0.0000   0.0000   0.0000

          k = 0.6667-0.3333 0.6667 (  2092 PWs)   bands (ev):

    -3.1722  -0.2977   3.5612   4.5689   8.4155  10.5320  11.0085  12.8405
    15.8594  16.9049  18.2619  18.2946  19.2324  22.6655  24.5108  25.5179
    26.7213  27.1250  27.6202  29.2990  30.6226  32.8783  33.5400  33.8313
    34.2448  36.1780  36.8803  37.0283  38.7083  40.4325

     occupation numbers 
     1.0000   1.0000   1.0000   1.0000   0.0000   0.0000   0.0000   0.0000
     0.0000   0.0000   0.0000   0.0000   0.0000   0.0000   0.0000   0.0000
     0.0000   0.0000   0.0000   0.0000   0.0000   0.0000   0.0000   0.0000
     0.0000   0.0000   0.0000   0.0000   0.0000   0.0000

          k = 0.5833-0.2500 0.5833 (  2084 PWs)   bands (ev):

    -3.0547  -0.4613   3.3428   4.7564   8.5674  10.4798  10.7786  14.4146
    15.0057  15.2010  17.6278  20.0058  20.6537  21.1759  24.2898  26.4688
    26.8077  27.0505  28.3300  28.3474  31.4711  32.4568  33.1618  33.6927
    34.0211  35.4085  36.3146  37.7566  39.0321  40.2740

     occupation numbers 
     1.0000   1.0000   1.0000   1.0000   0.0000   0.0000   0.0000   0.0000
     0.0000   0.0000   0.0000   0.0000   0.0000   0.0000   0.0000   0.0000
     0.0000   0.0000   0.0000   0.0000   0.0000   0.0000   0.0000   0.0000
     0.0000   0.0000   0.0000   0.0000   0.0000   0.0000

          k = 0.5000-0.1667 0.5000 (  2082 PWs)   bands (ev):

    -3.5650   0.3128   3.2827   5.0566   8.8436  10.5288  10.6147  13.7237
    13.7447  15.8563  17.9239  19.3164  21.4492  21.8790  22.8539  24.4562
    26.4573  28.4861  28.6116  29.5460  31.3691  31.5504  33.8618  34.2520
    35.0048  35.0688  36.4692  38.7534  39.9745  40.4078

     occupation numbers 
     1.0000   1.0000   1.0000   1.0000   0.0000   0.0000   0.0000   0.0000
     0.0000   0.0000   0.0000   0.0000   0.0000   0.0000   0.0000   0.0000
     0.0000   0.0000   0.0000   0.0000   0.0000   0.0000   0.0000   0.0000
     0.0000   0.0000   0.0000   0.0000   0.0000   0.0000

          k = 0.4167-0.0833 0.4167 (  2088 PWs)   bands (ev):

    -4.2002   1.4795   3.4245   5.4309   9.1889  10.3925  10.5800  12.5773
    12.7284  16.7536  17.5986  18.6521  20.2953  21.8976  23.2796  24.5295
    25.8344  27.6689  28.5995  29.4726  31.9763  32.8320  34.0293  35.2971
    35.6175  36.8267  37.5483  39.0425  40.4437  40.6500

     occupation numbers 
     1.0000   1.0000   1.0000   1.0000   0.0000   0.0000   0.0000   0.0000
     0.0000   0.0000   0.0000   0.0000   0.0000   0.0000   0.0000   0.0000
     0.0000   0.0000   0.0000   0.0000   0.0000   0.0000   0.0000   0.0000
     0.0000   0.0000   0.0000   0.0000   0.0000   0.0000

          k = 0.3333 0.0000 0.3333 (  2083 PWs)   bands (ev):

    -4.7403   2.6381   3.9177   5.8010   9.4596   9.9482  10.2495  12.1047
    12.4711  15.8705  16.9545  17.9396  19.8422  22.1187  22.5051  25.2649
    26.9639  27.2361  27.7629  29.0314  33.1268  33.3648  35.1017  35.8885
    37.2335  37.8088  38.0801  40.4672  40.7286  40.7741

     occupation numbers 
     1.0000   1.0000   1.0000   1.0000   0.0000   0.0000   0.0000   0.0000
     0.0000   0.0000   0.0000   0.0000   0.0000   0.0000   0.0000   0.0000
     0.0000   0.0000   0.0000   0.0000   0.0000   0.0000   0.0000   0.0000
     0.0000   0.0000   0.0000   0.0000   0.0000   0.0000

          k = 0.0000 0.5000 0.0000 (  2085 PWs)   bands (ev):

    -4.6063   2.8550   4.4509   4.4509   7.4874   9.5032  12.1821  12.1821
    14.5937  15.3294  17.9199  19.4618  19.4618  20.1785  23.9476  23.9476
    24.8302  26.9595  27.4616  31.4231  32.7725  33.9038  33.9038  36.1611
    36.1611  36.1730  36.9731  41.1946  41.8904  41.9988

     occupation numbers 
     1.0000   1.0000   1.0000   1.0000   0.0000   0.0000   0.0000   0.0000
     0.0000   0.0000   0.0000   0.0000   0.0000   0.0000   0.0000   0.0000
     0.0000   0.0000   0.0000   0.0000   0.0000   0.0000   0.0000   0.0000
     0.0000   0.0000   0.0000   0.0000   0.0000   0.0000

          k =-0.0833 0.5833-0.0833 (  2081 PWs)   bands (ev):

    -4.1635   1.9321   3.9790   4.2013   7.5718   9.1423  12.4837  12.6646
    15.8958  15.9073  18.3554  19.7816  19.9547  21.3192  22.4935  23.1893
    24.7382  26.5649  28.3418  31.6897  31.8145  33.1099  33.3311  34.9033
    35.6341  35.7207  36.6112  40.6574  40.8745  42.2936

     occupation numbers 
     1.0000   1.0000   1.0000   1.0000   0.0000   0.0000   0.0000   0.0000
     0.0000   0.0000   0.0000   0.0000   0.0000   0.0000   0.0000   0.0000
     0.0000   0.0000   0.0000   0.0000   0.0000   0.0000   0.0000   0.0000
     0.0000   0.0000   0.0000   0.0000   0.0000   0.0000

          k =-0.1667 0.6667-0.1667 (  2082 PWs)   bands (ev):

    -3.5793   0.8860   3.3379   4.0932   7.7886   9.6241  12.3581  12.6114
    17.0197  17.5201  17.8371  18.9143  20.2358  21.6059  22.8672  24.4872
    25.1390  26.2720  28.2371  29.5803  31.6185  32.4488  32.9783  33.4973
    35.6847  35.7666  37.5131  38.6559  39.4401  41.4364

     occupation numbers 
     1.0000   1.0000   1.0000   1.0000   0.0000   0.0000   0.0000   0.0000
     0.0000   0.0000   0.0000   0.0000   0.0000   0.0000   0.0000   0.0000
     0.0000   0.0000   0.0000   0.0000   0.0000   0.0000   0.0000   0.0000
     0.0000   0.0000   0.0000   0.0000   0.0000   0.0000

          k = 0.7500-0.2500 0.7500 (  2092 PWs)   bands (ev):

    -2.9437  -0.0577   2.7839   4.1330   7.8764  10.8342  12.1964  12.3248
    16.6817  16.9729  18.6191  19.2166  19.5580  23.3545  24.2193  25.1759
    25.8925  26.1188  26.4660  29.4995  30.2557  31.7520  32.1581  34.4223
    35.7526  35.8594  36.0478  37.8359  38.6496  40.9096

     occupation numbers 
     1.0000   1.0000   1.0000   1.0000   0.0000   0.0000   0.0000   0.0000
     0.0000   0.0000   0.0000   0.0000   0.0000   0.0000   0.0000   0.0000
     0.0000   0.0000   0.0000   0.0000   0.0000   0.0000   0.0000   0.0000
     0.0000   0.0000   0.0000   0.0000   0.0000   0.0000

          k = 0.6667-0.1667 0.6667 (  2095 PWs)   bands (ev):

    -2.6118  -0.4823   2.4149   4.3162   8.0599  11.8656  12.0238  12.6116
    15.1896  15.2383  19.0402  20.3736  21.0445  23.4332  24.0103  24.8436
    25.4608  26.6817  27.5824  28.4905  31.4463  31.6116  31.8927  33.3449
    34.7536  35.8921  36.0284  36.8129  39.1991  40.6636

     occupation numbers 
     1.0000   1.0000   1.0000   1.0000   0.0000   0.0000   0.0000   0.0000
     0.0000   0.0000   0.0000   0.0000   0.0000   0.0000   0.0000   0.0000
     0.0000   0.0000   0.0000   0.0000   0.0000   0.0000   0.0000   0.0000
     0.0000   0.0000   0.0000   0.0000   0.0000   0.0000

          k = 0.5833-0.0833 0.5833 (  2084 PWs)   bands (ev):

    -2.9957   0.0224   2.2908   4.6261   8.3925  11.7263  11.8611  13.6371
    13.6863  14.3869  19.1083  21.3996  21.6361  22.2271  22.8868  24.8943
    25.1416  27.0653  28.8054  29.4925  30.7124  32.2061  32.3852  33.6492
    34.2948  34.8546  36.0305  36.9289  40.6746  40.7826

     occupation numbers 
     1.0000   1.0000   1.0000   1.0000   0.0000   0.0000   0.0000   0.0000
     0.0000   0.0000   0.0000   0.0000   0.0000   0.0000   0.0000   0.0000
     0.0000   0.0000   0.0000   0.0000   0.0000   0.0000   0.0000   0.0000
     0.0000   0.0000   0.0000   0.0000   0.0000   0.0000

          k = 0.5000 0.0000 0.5000 (  2085 PWs)   bands (ev):

    -3.6290   0.8590   2.5563   5.0251   8.8315  11.1943  11.5450  12.6043
    12.8193  16.1000  19.0901  19.7044  19.9375  23.1799  23.5220  24.0058
    25.2399  27.7862  28.2320  30.4610  31.3844  31.8191  33.3947  33.7152
    34.3611  36.0689  36.8622  37.8370  40.5956  40.7328

     occupation numbers 
     1.0000   1.0000   1.0000   1.0000   0.0000   0.0000   0.0000   0.0000
     0.0000   0.0000   0.0000   0.0000   0.0000   0.0000   0.0000   0.0000
     0.0000   0.0000   0.0000   0.0000   0.0000   0.0000   0.0000   0.0000
     0.0000   0.0000   0.0000   0.0000   0.0000   0.0000

          k = 0.0000 0.6667 0.0000 (  2080 PWs)   bands (ev):

    -3.7725   1.3440   3.9162   3.9162   7.0766   8.3424  13.7067  13.7067
    16.2773  16.3999  19.6040  19.9402  19.9402  21.5803  22.6555  22.9402
    22.9402  25.7069  29.4102  31.1476  32.0424  32.0424  33.2462  34.2837
    34.2934  35.5610  35.5610  41.7719  41.8948  42.3776

     occupation numbers 
     1.0000   1.0000   1.0000   1.0000   0.0000   0.0000   0.0000   0.0000
     0.0000   0.0000   0.0000   0.0000   0.0000   0.0000   0.0000   0.0000
     0.0000   0.0000   0.0000   0.0000   0.0000   0.0000   0.0000   0.0000
     0.0000   0.0000   0.0000   0.0000   0.0000   0.0000

          k =-0.0833 0.7500-0.0833 (  2087 PWs)   bands (ev):

    -3.2300   0.5478   3.4205   3.7719   7.2392   8.2143  14.0447  14.0724
    17.2080  17.7018  18.7289  18.9754  20.9578  21.6370  22.0965  23.7365
    24.0652  25.7312  29.1021  29.6557  30.7641  31.1134  32.1133  33.5258
    35.0689  35.7458  36.9828  40.2275  40.8698  41.7463

     occupation numbers 
     1.0000   1.0000   1.0000   1.0000   0.0000   0.0000   0.0000   0.0000
     0.0000   0.0000   0.0000   0.0000   0.0000   0.0000   0.0000   0.0000
     0.0000   0.0000   0.0000   0.0000   0.0000   0.0000   0.0000   0.0000
     0.0000   0.0000   0.0000   0.0000   0.0000   0.0000

          k = 0.8333-0.1667 0.8333 (  2092 PWs)   bands (ev):

    -2.5904  -0.2317   2.6776   3.7785   7.4112   9.0870  13.8795  13.9435
    17.1123  17.1423  18.7712  19.4618  21.1895  22.3596  22.4259  25.1732
    25.3200  26.0013  27.1691  29.2571  29.7792  30.3974  30.8754  33.2309
    35.9530  35.9873  38.3145  38.7128  38.9548  41.2665

     occupation numbers 
     1.0000   1.0000   1.0000   1.0000   0.0000   0.0000   0.0000   0.0000
     0.0000   0.0000   0.0000   0.0000   0.0000   0.0000   0.0000   0.0000
     0.0000   0.0000   0.0000   0.0000   0.0000   0.0000   0.0000   0.0000
     0.0000   0.0000   0.0000   0.0000   0.0000   0.0000

          k = 0.7500-0.0833 0.7500 (  2100 PWs)   bands (ev):

    -2.1106  -0.7328   2.0874   3.9348   7.5908  10.5503  13.5252  13.7757
    15.3501  15.4042  20.5902  20.9530  21.1471  22.7239  23.5246  23.8160
    25.8124  26.5430  27.0928  29.2664  29.4061  30.0780  30.9905  33.3850
    35.6178  36.0113  36.0781  37.7376  40.6132  41.1195

     occupation numbers 
     1.0000   1.0000   1.0000   1.0000   0.0000   0.0000   0.0000   0.0000
     0.0000   0.0000   0.0000   0.0000   0.0000   0.0000   0.0000   0.0000
     0.0000   0.0000   0.0000   0.0000   0.0000   0.0000   0.0000   0.0000
     0.0000   0.0000   0.0000   0.0000   0.0000   0.0000

          k = 0.6667-0.0000 0.6667 (  2091 PWs)   bands (ev):

    -2.3872  -0.4437   1.8818   4.2280   7.9246  12.1930  12.9038  13.5351
    13.9156  14.0570  20.8493  21.4408  22.1716  22.3007  23.1454  24.0996
    24.9704  26.4678  28.7477  29.1211  29.4820  30.5944  33.1820  33.3954
    34.0526  35.5507  35.8513  36.0562  40.9602  41.6132

     occupation numbers 
     1.0000   1.0000   1.0000   1.0000   0.0000   0.0000   0.0000   0.0000
     0.0000   0.0000   0.0000   0.0000   0.0000   0.0000   0.0000   0.0000
     0.0000   0.0000   0.0000   0.0000   0.0000   0.0000   0.0000   0.0000
     0.0000   0.0000   0.0000   0.0000   0.0000   0.0000

          k = 0.0000 0.8333 0.0000 (  2100 PWs)   bands (ev):

    -2.7285  -0.1266   3.5870   3.5870   6.9157   7.5187  15.2892  15.2892
    17.4908  18.1420  18.7453  18.7453  20.3815  20.6911  23.3785  24.2158
    24.2158  25.4945  28.7929  29.2271  29.2271  30.2857  30.9904  33.0476
    35.9181  35.9181  37.4166  41.3568  41.3568  42.0431

     occupation numbers 
     1.0000   1.0000   1.0000   1.0000   0.0000   0.0000   0.0000   0.0000
     0.0000   0.0000   0.0000   0.0000   0.0000   0.0000   0.0000   0.0000
     0.0000   0.0000   0.0000   0.0000   0.0000   0.0000   0.0000   0.0000
     0.0000   0.0000   0.0000   0.0000   0.0000   0.0000

          k = 0.9167-0.0833 0.9167 (  2087 PWs)   bands (ev):

    -2.1056  -0.8238   3.1452   3.5530   7.1164   7.6929  15.5324  15.6497
    17.3429  17.3514  18.7299  19.4200  20.4279  20.7759  23.5209  25.4421
    25.4900  25.9035  27.3741  28.0062  28.6536  29.6394  30.8203  32.1294
    36.0679  36.6983  38.8745  40.1994  40.7004  41.1781

     occupation numbers 
     1.0000   1.0000   1.0000   1.0000   0.0000   0.0000   0.0000   0.0000
     0.0000   0.0000   0.0000   0.0000   0.0000   0.0000   0.0000   0.0000
     0.0000   0.0000   0.0000   0.0000   0.0000   0.0000   0.0000   0.0000
     0.0000   0.0000   0.0000   0.0000   0.0000   0.0000

          k = 0.8333 0.0000 0.8333 (  2089 PWs)   bands (ev):

    -1.6392  -1.2352   2.4590   3.6719   7.2779   8.9122  14.9839  15.5591
    15.5779  15.8596  20.4530  20.6202  20.7527  21.8293  23.2625  23.7384
    26.3107  27.1307  27.3321  27.8688  28.6864  29.8238  30.5204  31.5925
    36.1185  37.4378  37.8300  38.1876  41.2184  41.2725

     occupation numbers 
     1.0000   1.0000   1.0000   1.0000   0.0000   0.0000   0.0000   0.0000
     0.0000   0.0000   0.0000   0.0000   0.0000   0.0000   0.0000   0.0000
     0.0000   0.0000   0.0000   0.0000   0.0000   0.0000   0.0000   0.0000
     0.0000   0.0000   0.0000   0.0000   0.0000   0.0000

          k = 0.0000-1.0000 0.0000 (  2100 PWs)   bands (ev):

    -1.5006  -1.5006   3.4761   3.4761   7.0512   7.0512  16.6145  16.6145
    17.4039  17.4039  18.9648  18.9648  19.6264  19.6264  25.3351  25.3351
    26.2701  26.2701  26.7676  26.7676  28.1292  28.1292  31.9303  31.9303
    36.1187  36.1187  40.8977  40.8977  40.9524  40.9524

     occupation numbers 
     1.0000   1.0000   1.0000   1.0000   0.0000   0.0000   0.0000   0.0000
     0.0000   0.0000   0.0000   0.0000   0.0000   0.0000   0.0000   0.0000
     0.0000   0.0000   0.0000   0.0000   0.0000   0.0000   0.0000   0.0000
     0.0000   0.0000   0.0000   0.0000   0.0000   0.0000

          k =-0.1667 0.3333 0.0000 (  2078 PWs)   bands (ev):

    -5.0936   3.6391   4.7085   5.6585   8.7142   9.9807  10.5603  11.3114
    13.3094  14.5948  16.4391  17.8519  18.8811  20.6910  24.2483  25.0796
    26.2998  27.7292  28.9829  29.0811  32.5639  34.0529  34.9672  36.9124
    38.0821  38.1172  39.5443  39.9754  40.0465  40.6081

     occupation numbers 
     1.0000   1.0000   1.0000   1.0000   0.0000   0.0000   0.0000   0.0000
     0.0000   0.0000   0.0000   0.0000   0.0000   0.0000   0.0000   0.0000
     0.0000   0.0000   0.0000   0.0000   0.0000   0.0000   0.0000   0.0000
     0.0000   0.0000   0.0000   0.0000   0.0000   0.0000

          k =-0.2500 0.4167-0.0833 (  2077 PWs)   bands (ev):

    -4.6509   2.3807   4.1724   5.3786   9.0039   9.9381  10.9682  11.2801
    13.7548  15.7914  16.7250  18.4739  20.0991  22.1502  22.2978  24.7407
    26.0816  27.5518  28.3755  29.3817  32.3658  33.5394  34.7516  36.1103
    36.9786  37.7654  38.4857  39.7270  39.8773  40.5477

     occupation numbers 
     1.0000   1.0000   1.0000   1.0000   0.0000   0.0000   0.0000   0.0000
     0.0000   0.0000   0.0000   0.0000   0.0000   0.0000   0.0000   0.0000
     0.0000   0.0000   0.0000   0.0000   0.0000   0.0000   0.0000   0.0000
     0.0000   0.0000   0.0000   0.0000   0.0000   0.0000

          k =-0.3333 0.5000-0.1667 (  2084 PWs)   bands (ev):

    -4.0666   1.0586   3.9040   5.0449   9.0590   9.7831  11.0235  11.9434
    14.6316  16.3070  17.3467  18.9834  20.6183  21.8890  22.8165  24.5096
    25.4106  28.0108  29.0451  30.2529  31.2268  31.9641  34.0970  35.0628
    36.4043  36.7326  37.8872  38.2546  39.2811  40.4228

     occupation numbers 
     1.0000   1.0000   1.0000   1.0000   0.0000   0.0000   0.0000   0.0000
     0.0000   0.0000   0.0000   0.0000   0.0000   0.0000   0.0000   0.0000
     0.0000   0.0000   0.0000   0.0000   0.0000   0.0000   0.0000   0.0000
     0.0000   0.0000   0.0000   0.0000   0.0000   0.0000

          k = 0.5833-0.4167 0.7500 (  2082 PWs)   bands (ev):

    -3.4332  -0.0499   3.7782   4.7931   9.0138   9.5720  10.9370  13.1790
    15.4992  16.0786  17.7320  18.9471  19.8892  22.1727  23.5774  25.0937
    26.7567  28.0386  28.6346  29.4124  30.9765  32.0102  33.8261  34.1191
    34.3405  36.1722  37.3050  37.8600  38.8379  40.2833

     occupation numbers 
     1.0000   1.0000   1.0000   1.0000   0.0000   0.0000   0.0000   0.0000
     0.0000   0.0000   0.0000   0.0000   0.0000   0.0000   0.0000   0.0000
     0.0000   0.0000   0.0000   0.0000   0.0000   0.0000   0.0000   0.0000
     0.0000   0.0000   0.0000   0.0000   0.0000   0.0000

          k = 0.5000-0.3333 0.6667 (  2088 PWs)   bands (ev):

    -3.0866  -0.5588   3.7436   4.6993   8.9981   9.4778  10.8902  14.5139
    14.6888  16.3182  17.9935  18.3514  20.5006  21.0068  25.5039  25.7189
    27.4283  27.4336  27.5161  28.7890  31.8578  31.9132  32.9060  33.8648
    34.4421  35.9279  36.9160  37.2211  38.6812  40.1131

     occupation numbers 
     1.0000   1.0000   1.0000   1.0000   0.0000   0.0000   0.0000   0.0000
     0.0000   0.0000   0.0000   0.0000   0.0000   0.0000   0.0000   0.0000
     0.0000   0.0000   0.0000   0.0000   0.0000   0.0000   0.0000   0.0000
     0.0000   0.0000   0.0000   0.0000   0.0000   0.0000

          k =-0.1667 0.5000 0.0000 (  2075 PWs)   bands (ev):

    -4.4941   2.4413   4.0029   4.7212   8.1581   9.9103  11.2348  12.0598
    14.6333  15.9157  17.7294  18.6997  19.9813  21.5848  22.3136  24.2900
    25.7182  27.3265  27.7004  30.4202  32.1460  33.2294  34.5614  35.7231
    35.9755  37.5622  37.6667  39.5196  41.0967  41.7288

     occupation numbers 
     1.0000   1.0000   1.0000   1.0000   0.0000   0.0000   0.0000   0.0000
     0.0000   0.0000   0.0000   0.0000   0.0000   0.0000   0.0000   0.0000
     0.0000   0.0000   0.0000   0.0000   0.0000   0.0000   0.0000   0.0000
     0.0000   0.0000   0.0000   0.0000   0.0000   0.0000

          k =-0.2500 0.5833-0.0833 (  2083 PWs)   bands (ev):

    -3.9534   1.3750   3.4606   4.4262   8.4937  10.1278  10.9793  12.4472
    15.3129  17.4450  17.5766  19.0924  20.4627  21.5559  22.3388  24.5647
    25.5229  26.9622  28.1114  30.9148  31.2054  31.8947  33.2800  34.7602
    35.8523  37.0841  37.9075  38.7658  39.3393  40.6383

     occupation numbers 
     1.0000   1.0000   1.0000   1.0000   0.0000   0.0000   0.0000   0.0000
     0.0000   0.0000   0.0000   0.0000   0.0000   0.0000   0.0000   0.0000
     0.0000   0.0000   0.0000   0.0000   0.0000   0.0000   0.0000   0.0000
     0.0000   0.0000   0.0000   0.0000   0.0000   0.0000

          k = 0.6667-0.3333 0.8333 (  2083 PWs)   bands (ev):

    -3.3172   0.3011   3.1031   4.2105   8.6145  10.6062  11.2205  12.4269
    16.3104  16.5187  18.2830  19.3204  19.9386  22.2268  24.0807  24.9399
    25.4890  27.1006  27.8680  29.3776  30.5144  32.1924  32.9817  33.8452
    35.5135  36.2511  36.9672  38.0320  38.9869  39.8589

     occupation numbers 
     1.0000   1.0000   1.0000   1.0000   0.0000   0.0000   0.0000   0.0000
     0.0000   0.0000   0.0000   0.0000   0.0000   0.0000   0.0000   0.0000
     0.0000   0.0000   0.0000   0.0000   0.0000   0.0000   0.0000   0.0000
     0.0000   0.0000   0.0000   0.0000   0.0000   0.0000

          k = 0.5833-0.2500 0.7500 (  2084 PWs)   bands (ev):

    -2.8093  -0.4207   2.8550   4.1920   8.7454  10.3329  12.3129  12.7041
    14.7197  16.9872  18.2881  18.9285  21.0796  23.0743  24.3990  25.2639
    25.9931  26.3747  28.1128  28.4707  30.9334  31.7631  32.9008  33.1833
    34.7132  36.1425  36.6666  37.7278  38.3749  39.3978

     occupation numbers 
     1.0000   1.0000   1.0000   1.0000   0.0000   0.0000   0.0000   0.0000
     0.0000   0.0000   0.0000   0.0000   0.0000   0.0000   0.0000   0.0000
     0.0000   0.0000   0.0000   0.0000   0.0000   0.0000   0.0000   0.0000
     0.0000   0.0000   0.0000   0.0000   0.0000   0.0000

          k = 0.5000-0.1667 0.6667 (  2080 PWs)   bands (ev):

    -2.9481  -0.2294   2.7330   4.3683   9.0018  10.1387  12.2363  13.0799
    14.4292  15.7616  18.3540  20.1979  21.3859  22.5009  23.3017  25.3476
    25.9463  27.3595  27.8406  29.0895  30.8109  31.9758  32.8944  33.5021
    34.2937  35.1752  36.9968  37.8449  39.0878  39.5636

     occupation numbers 
     1.0000   1.0000   1.0000   1.0000   0.0000   0.0000   0.0000   0.0000
     0.0000   0.0000   0.0000   0.0000   0.0000   0.0000   0.0000   0.0000
     0.0000   0.0000   0.0000   0.0000   0.0000   0.0000   0.0000   0.0000
     0.0000   0.0000   0.0000   0.0000   0.0000   0.0000

          k = 0.4167-0.0833 0.5833 (  2084 PWs)   bands (ev):

    -3.5500   0.6656   2.8036   4.6916   9.3725   9.9931  11.7050  12.1790
    14.4468  16.1272  18.6519  19.5772  20.7388  21.9662  23.4831  24.6280
    25.4660  27.8246  28.2487  29.7921  31.2801  31.9536  32.6911  33.9026
    34.9653  36.3312  37.2123  38.4999  39.2241  40.1678

     occupation numbers 
     1.0000   1.0000   1.0000   1.0000   0.0000   0.0000   0.0000   0.0000
     0.0000   0.0000   0.0000   0.0000   0.0000   0.0000   0.0000   0.0000
     0.0000   0.0000   0.0000   0.0000   0.0000   0.0000   0.0000   0.0000
     0.0000   0.0000   0.0000   0.0000   0.0000   0.0000

          k = 0.3333 0.0000 0.5000 (  2072 PWs)   bands (ev):

    -4.1625   1.6604   3.2211   5.0812   9.5996   9.7680  11.0629  11.7543
    13.7190  17.2932  17.6715  18.6085  20.1809  21.7094  22.9093  25.1313
    25.8340  26.8423  28.4043  30.0458  31.8295  32.0858  34.1324  34.8147
    35.9021  37.3370  38.2104  39.3104  39.7674  39.8331

     occupation numbers 
     1.0000   1.0000   1.0000   1.0000   0.0000   0.0000   0.0000   0.0000
     0.0000   0.0000   0.0000   0.0000   0.0000   0.0000   0.0000   0.0000
     0.0000   0.0000   0.0000   0.0000   0.0000   0.0000   0.0000   0.0000
     0.0000   0.0000   0.0000   0.0000   0.0000   0.0000

          k =-0.1667 0.6667-0.0000 (  2077 PWs)   bands (ev):

    -3.6721   1.1654   3.4859   3.9207   7.7530   8.8381  12.4959  13.6540
    16.0909  17.5882  18.2699  19.7236  20.5024  21.2994  22.2491  23.8097
    24.2922  26.3836  28.6926  30.3020  31.6780  31.7810  33.3334  33.8677
    34.7140  35.8665  37.1846  39.9256  40.9230  41.0144

     occupation numbers 
     1.0000   1.0000   1.0000   1.0000   0.0000   0.0000   0.0000   0.0000
     0.0000   0.0000   0.0000   0.0000   0.0000   0.0000   0.0000   0.0000
     0.0000   0.0000   0.0000   0.0000   0.0000   0.0000   0.0000   0.0000
     0.0000   0.0000   0.0000   0.0000   0.0000   0.0000

          k = 0.7500-0.2500 0.9167 (  2092 PWs)   bands (ev):

    -3.0567   0.3181   2.8878   3.6990   8.0877   9.3799  12.1902  14.0276
    16.6976  17.0390  19.0062  19.4474  20.7069  21.4585  23.5656  23.7654
    26.0713  26.3942  27.7873  28.7657  30.2996  30.8661  32.5884  34.4559
    34.7628  35.8030  38.1492  38.6062  39.2023  40.1183

     occupation numbers 
     1.0000   1.0000   1.0000   1.0000   0.0000   0.0000   0.0000   0.0000
     0.0000   0.0000   0.0000   0.0000   0.0000   0.0000   0.0000   0.0000
     0.0000   0.0000   0.0000   0.0000   0.0000   0.0000   0.0000   0.0000
     0.0000   0.0000   0.0000   0.0000   0.0000   0.0000

          k = 0.6667-0.1667 0.8333 (  2099 PWs)   bands (ev):

    -2.4557  -0.4102   2.3577   3.7075   8.2422  10.6870  11.8930  13.9644
    14.8914  17.3636  18.7109  20.2694  21.2639  22.7568  24.2440  25.0810
    25.2505  25.8126  27.3622  29.1384  29.8071  30.2153  31.7458  34.5308
    34.9901  35.7537  36.5166  38.2435  39.0977  39.7305

     occupation numbers 
     1.0000   1.0000   1.0000   1.0000   0.0000   0.0000   0.0000   0.0000
     0.0000   0.0000   0.0000   0.0000   0.0000   0.0000   0.0000   0.0000
     0.0000   0.0000   0.0000   0.0000   0.0000   0.0000   0.0000   0.0000
     0.0000   0.0000   0.0000   0.0000   0.0000   0.0000

          k = 0.5833-0.0833 0.7500 (  2092 PWs)   bands (ev):

    -2.3819  -0.4838   2.0630   3.9099   8.5038  11.4570  12.4687  13.1721
    13.8541  15.8222  20.0254  20.4944  22.4459  22.7880  23.7181  23.9428
    25.7700  26.1141  27.9033  28.7624  29.6333  31.6546  32.6711  32.8991
    34.4536  35.4279  36.4318  37.2185  39.1928  40.2191

     occupation numbers 
     1.0000   1.0000   1.0000   1.0000   0.0000   0.0000   0.0000   0.0000
     0.0000   0.0000   0.0000   0.0000   0.0000   0.0000   0.0000   0.0000
     0.0000   0.0000   0.0000   0.0000   0.0000   0.0000   0.0000   0.0000
     0.0000   0.0000   0.0000   0.0000   0.0000   0.0000

          k = 0.5000 0.0000 0.6667 (  2093 PWs)   bands (ev):

    -2.9299   0.1164   2.1504   4.2614   8.9042  11.0454  11.9178  13.2627
    14.4087  14.6732  20.0502  20.6690  21.4899  22.0131  23.7193  24.4919
    25.0373  27.0741  28.4977  29.4403  30.4365  31.0263  32.8265  34.1030
    34.1841  35.3664  36.3792  37.2064  39.1367  40.8332

     occupation numbers 
     1.0000   1.0000   1.0000   1.0000   0.0000   0.0000   0.0000   0.0000
     0.0000   0.0000   0.0000   0.0000   0.0000   0.0000   0.0000   0.0000
     0.0000   0.0000   0.0000   0.0000   0.0000   0.0000   0.0000   0.0000
     0.0000   0.0000   0.0000   0.0000   0.0000   0.0000

          k = 0.8333-0.1667 1.0000 (  2090 PWs)   bands (ev):

    -2.6493  -0.1626   3.1978   3.3964   7.5767   8.0868  13.8847  15.2861
    17.0523  17.5996  18.7824  19.4495  20.5721  22.2182  22.2735  23.8542
    25.8360  25.9753  27.7719  28.6012  30.0056  30.4218  31.1400  32.4393
    36.1635  36.2867  37.9417  39.7600  40.6453  40.6778

     occupation numbers 
     1.0000   1.0000   1.0000   1.0000   0.0000   0.0000   0.0000   0.0000
     0.0000   0.0000   0.0000   0.0000   0.0000   0.0000   0.0000   0.0000
     0.0000   0.0000   0.0000   0.0000   0.0000   0.0000   0.0000   0.0000
     0.0000   0.0000   0.0000   0.0000   0.0000   0.0000

          k = 0.7500-0.0833 0.9167 (  2094 PWs)   bands (ev):

    -2.0093  -0.8143   2.5544   3.3521   7.8693   9.0106  13.5587  15.0684
    15.7207  17.4397  18.9287  20.6369  21.3289  22.3552  22.9355  24.6097
    25.1263  26.8779  27.6460  27.9210  29.7329  30.1375  30.2069  31.9632
    36.1911  37.1937  37.9154  38.3212  39.3887  40.1372

     occupation numbers 
     1.0000   1.0000   1.0000   1.0000   0.0000   0.0000   0.0000   0.0000
     0.0000   0.0000   0.0000   0.0000   0.0000   0.0000   0.0000   0.0000
     0.0000   0.0000   0.0000   0.0000   0.0000   0.0000   0.0000   0.0000
     0.0000   0.0000   0.0000   0.0000   0.0000   0.0000

          k = 0.6667 0.0000 0.8333 (  2099 PWs)   bands (ev):

    -1.8483  -0.9320   2.0456   3.5527   8.1105  10.5567  13.0945  13.4868
    15.2689  16.1511  20.1645  21.3009  21.9345  22.8513  22.9704  23.9771
    25.8843  26.1614  27.3247  28.6239  29.1566  30.2911  31.8392  32.4745
    35.2463  35.5127  37.4462  37.8129  39.6018  39.6895

     occupation numbers 
     1.0000   1.0000   1.0000   1.0000   0.0000   0.0000   0.0000   0.0000
     0.0000   0.0000   0.0000   0.0000   0.0000   0.0000   0.0000   0.0000
     0.0000   0.0000   0.0000   0.0000   0.0000   0.0000   0.0000   0.0000
     0.0000   0.0000   0.0000   0.0000   0.0000   0.0000

          k =-0.1667-1.0000-0.0000 (  2086 PWs)   bands (ev):

    -1.4609  -1.4609   3.1613   3.1613   7.6759   7.6759  15.3757  15.3757
    17.0601  17.0601  19.2910  19.2910  20.9935  20.9935  24.3815  24.3815
    25.9105  25.9105  27.7827  27.7827  28.9878  28.9878  31.0203  31.0203
    36.7572  36.7572  39.2115  39.2115  40.5456  40.5456

     occupation numbers 
     1.0000   1.0000   1.0000   1.0000   0.0000   0.0000   0.0000   0.0000
     0.0000   0.0000   0.0000   0.0000   0.0000   0.0000   0.0000   0.0000
     0.0000   0.0000   0.0000   0.0000   0.0000   0.0000   0.0000   0.0000
     0.0000   0.0000   0.0000   0.0000   0.0000   0.0000

          k = 0.6667-0.3333 1.0000 (  2092 PWs)   bands (ev):

    -3.3803   0.6991   2.7426   4.0383   9.2334  10.0830  10.6548  13.5030
    15.4534  16.3720  19.5635  19.6694  20.4075  21.4047  23.1315  24.3618
    26.0882  27.5006  27.5808  29.2592  30.7220  31.1137  33.2699  34.1277
    34.9181  36.7026  37.9617  38.2928  39.0105  39.4538

     occupation numbers 
     1.0000   1.0000   1.0000   1.0000   0.0000   0.0000   0.0000   0.0000
     0.0000   0.0000   0.0000   0.0000   0.0000   0.0000   0.0000   0.0000
     0.0000   0.0000   0.0000   0.0000   0.0000   0.0000   0.0000   0.0000
     0.0000   0.0000   0.0000   0.0000   0.0000   0.0000

          k = 0.5833-0.2500 0.9167 (  2087 PWs)   bands (ev):

    -2.7450  -0.0830   2.3914   3.6939   9.6051  10.1567  11.1642  13.9321
    14.5454  16.4343  19.3818  20.3482  21.5713  21.8585  23.6286  25.0472
    25.6387  27.0449  27.5368  28.8421  29.9901  30.2759  32.8754  34.3932
    35.3535  35.6635  36.5059  37.6270  38.5135  39.3992

     occupation numbers 
     1.0000   1.0000   1.0000   1.0000   0.0000   0.0000   0.0000   0.0000
     0.0000   0.0000   0.0000   0.0000   0.0000   0.0000   0.0000   0.0000
     0.0000   0.0000   0.0000   0.0000   0.0000   0.0000   0.0000   0.0000
     0.0000   0.0000   0.0000   0.0000   0.0000   0.0000

          k = 0.5000-0.1667 0.8333 (  2100 PWs)   bands (ev):

    -2.3765  -0.5219   2.2985   3.5617   9.7223   9.9616  12.5081  12.9563
    14.0000  17.5601  18.4545  19.9714  22.7794  23.4083  23.5072  24.4751
    25.0881  27.0468  27.3998  28.2404  29.6333  32.1802  32.3507  32.5619
    35.0529  36.2464  36.8182  37.4974  37.9086  39.1933

     occupation numbers 
     1.0000   1.0000   1.0000   1.0000   0.0000   0.0000   0.0000   0.0000
     0.0000   0.0000   0.0000   0.0000   0.0000   0.0000   0.0000   0.0000
     0.0000   0.0000   0.0000   0.0000   0.0000   0.0000   0.0000   0.0000
     0.0000   0.0000   0.0000   0.0000   0.0000   0.0000

          k = 0.6667-0.1667 1.0000 (  2097 PWs)   bands (ev):

    -2.4302  -0.3079   2.5393   3.1662   9.0574   9.4565  11.8054  14.7670
    15.2977  17.2185  19.2819  20.7514  21.2991  21.7606  23.2280  24.5597
    26.0996  27.1767  27.5293  27.6327  29.5091  29.7889  31.9883  33.8230
    35.5359  36.4696  37.6509  37.8818  38.1363  39.3274

     occupation numbers 
     1.0000   1.0000   1.0000   1.0000   0.0000   0.0000   0.0000   0.0000
     0.0000   0.0000   0.0000   0.0000   0.0000   0.0000   0.0000   0.0000
     0.0000   0.0000   0.0000   0.0000   0.0000   0.0000   0.0000   0.0000
     0.0000   0.0000   0.0000   0.0000   0.0000   0.0000

          k = 0.5833-0.0833 0.9167 (  2105 PWs)   bands (ev):

    -1.8968  -0.8221   2.2161   3.0094   9.3986  10.6675  11.5332  12.9253
    15.6876  17.5900  18.8456  20.8215  21.7940  23.5302  23.7411  24.7314
    25.4442  26.0618  26.8227  27.7912  29.3175  31.0706  31.8749  33.9760
    34.5989  35.5636  36.8212  37.6139  38.2054  39.0582

     occupation numbers 
     1.0000   1.0000   1.0000   1.0000   0.0000   0.0000   0.0000   0.0000
     0.0000   0.0000   0.0000   0.0000   0.0000   0.0000   0.0000   0.0000
     0.0000   0.0000   0.0000   0.0000   0.0000   0.0000   0.0000   0.0000
     0.0000   0.0000   0.0000   0.0000   0.0000   0.0000

          k = 0.5000 0.0000 0.8333 (  2102 PWs)   bands (ev):

    -2.1316  -0.5899   2.0890   3.2388   9.7025  10.8669  11.4129  12.6711
    15.2655  16.6866  19.7686  21.0751  21.3870  22.9033  23.8080  25.3013
    25.4395  26.2438  27.2238  27.4054  29.4766  31.4447  32.4151  34.1361
    34.3075  35.5530  36.5330  37.1235  38.4689  38.7188

     occupation numbers 
     1.0000   1.0000   1.0000   1.0000   0.0000   0.0000   0.0000   0.0000
     0.0000   0.0000   0.0000   0.0000   0.0000   0.0000   0.0000   0.0000
     0.0000   0.0000   0.0000   0.0000   0.0000   0.0000   0.0000   0.0000
     0.0000   0.0000   0.0000   0.0000   0.0000   0.0000

          k =-0.3333-1.0000 0.0000 (  2090 PWs)   bands (ev):

    -1.3756  -1.3756   2.6631   2.6631   9.1206   9.1206  13.1967  13.1967
    17.0428  17.0428  19.4604  19.4604  23.0089  23.0089  23.7346  23.7346
    25.3842  25.3842  27.9482  27.9482  29.8497  29.8497  31.4271  31.4271
    36.5778  36.5778  37.5055  37.5055  38.7934  38.7934

     occupation numbers 
     1.0000   1.0000   1.0000   1.0000   0.0000   0.0000   0.0000   0.0000
     0.0000   0.0000   0.0000   0.0000   0.0000   0.0000   0.0000   0.0000
     0.0000   0.0000   0.0000   0.0000   0.0000   0.0000   0.0000   0.0000
     0.0000   0.0000   0.0000   0.0000   0.0000   0.0000

          k =-0.5000-1.0000 0.0000 (  2120 PWs)   bands (ev):

    -1.3294  -1.3294   2.4500   2.4500  10.6433  10.6433  11.4312  11.4312
    17.0489  17.0489  19.5469  19.5469  22.9278  22.9278  25.1260  25.1260
    25.4664  25.4664  26.3290  26.3290  30.2460  30.2460  34.0604  34.0604
    34.2798  34.2798  36.1760  36.1760  39.1189  39.1189

     occupation numbers 
     1.0000   1.0000   1.0000   1.0000   0.0000   0.0000   0.0000   0.0000
     0.0000   0.0000   0.0000   0.0000   0.0000   0.0000   0.0000   0.0000
     0.0000   0.0000   0.0000   0.0000   0.0000   0.0000   0.0000   0.0000
     0.0000   0.0000   0.0000   0.0000   0.0000   0.0000

     highest occupied, lowest unoccupied level (ev):     6.3719    6.9157

!    total energy              =     -93.45246489 Ry
     total all-electron energy =     -1160.144195 Ry
     estimated scf accuracy    <          2.1E-10 Ry

     The total energy is the sum of the following terms:
     one-electron contribution =       5.86639517 Ry
     hartree contribution      =       1.08607265 Ry
     xc contribution           =     -12.32833589 Ry
     ewald contribution        =     -16.88717597 Ry
     one-center paw contrib.   =     -71.18942085 Ry
      -> PAW hartree energy AE =       6.04835318 Ry
      -> PAW hartree energy PS =      -6.02539423 Ry
      -> PAW xc energy AE      =     -81.78821190 Ry
      -> PAW xc energy PS      =      10.57583211 Ry
      -> total E_H with PAW    =       1.10903159 Ry
      -> total E_XC with PAW   =     -83.54071568 Ry

     convergence has been achieved in   7 iterations

     Writing all to output data dir ./tmp/silicon.save/

     init_run     :      5.39s CPU      5.61s WALL (       1 calls)
     electrons    :    115.92s CPU    117.35s WALL (       1 calls)

     Called by init_run:
     wfcinit      :      3.96s CPU      4.03s WALL (       1 calls)
     wfcinit:atom :      0.03s CPU      0.03s WALL (      72 calls)
     wfcinit:wfcr :      3.72s CPU      3.79s WALL (      72 calls)
     potinit      :      0.54s CPU      0.55s WALL (       1 calls)
     hinit0       :      0.71s CPU      0.74s WALL (       1 calls)

     Called by electrons:
     c_bands      :    100.12s CPU    100.45s WALL (       8 calls)
     sum_band     :     12.43s CPU     13.04s WALL (       8 calls)
     v_of_rho     :      0.68s CPU      0.77s WALL (       8 calls)
     v_h          :      0.03s CPU      0.03s WALL (       8 calls)
     v_xc         :      0.65s CPU      0.73s WALL (       8 calls)
     newd         :      1.02s CPU      1.52s WALL (       8 calls)
     PAW_pot      :      2.04s CPU      2.04s WALL (       8 calls)
     mix_rho      :      0.04s CPU      0.04s WALL (       8 calls)

     Called by c_bands:
     init_us_2    :      0.75s CPU      0.75s WALL (    1224 calls)
     init_us_2:cp :      0.75s CPU      0.75s WALL (    1224 calls)
     cegterg      :     98.15s CPU     98.45s WALL (     576 calls)

     Called by sum_band:
     sum_band:wei :      0.00s CPU      0.00s WALL (       8 calls)
     sum_band:loo :     11.36s CPU     11.42s WALL (       8 calls)
     sum_band:buf :      0.10s CPU      0.10s WALL (     576 calls)
     sum_band:ini :      0.33s CPU      0.33s WALL (     576 calls)
     sum_band:cal :      2.54s CPU      2.56s WALL (     576 calls)
     sum_band:bec :      0.03s CPU      0.03s WALL (     576 calls)
     addusdens    :      0.98s CPU      1.52s WALL (       8 calls)
                                        0.00s GPU  (       8 calls)
     addusd:skk   :      0.00s CPU      0.00s WALL (       8 calls)
                                        0.00s GPU  (       8 calls)

     Called by *egterg:
     cdiaghg      :      2.97s CPU      3.00s WALL (    2046 calls)
     cegterg:over :     11.30s CPU     11.32s WALL (    1542 calls)
     cegterg:upda :      6.98s CPU      7.00s WALL (    1542 calls)
     cegterg:last :     17.76s CPU     17.79s WALL (    1133 calls)
     h_psi        :     50.34s CPU     50.57s WALL (    2190 calls)
     s_psi        :      6.74s CPU      6.77s WALL (    2190 calls)
     g_psi        :      0.21s CPU      0.21s WALL (    1542 calls)

     Called by h_psi:
     h_psi:calbec :      6.50s CPU      6.53s WALL (    2190 calls)
     vloc_psi     :     36.75s CPU     36.93s WALL (    2190 calls)
     add_vuspsi   :      6.83s CPU      6.85s WALL (    2190 calls)

     General routines
     calbec       :      9.03s CPU      9.08s WALL (    2766 calls)
     fft          :      0.59s CPU      0.62s WALL (     103 calls)
     ffts         :      0.18s CPU      0.18s WALL (      16 calls)
     fftw         :     31.45s CPU     31.60s WALL (  105906 calls)
     interpolate  :      0.20s CPU      0.20s WALL (       8 calls)

     Parallel routines

     PAW routines
     PAW_pot      :      2.04s CPU      2.04s WALL (       8 calls)
     PAW_symme    :      0.01s CPU      0.01s WALL (      16 calls)

     PWSCF        :   2m 1.50s CPU   2m 3.27s WALL


   This run was terminated on:  23:40: 2  31May2023            

=------------------------------------------------------------------------------=
   JOB DONE.
=------------------------------------------------------------------------------=
