
     Program PWSCF v.7.2 starts on 31May2023 at 23:44:26 

     This program is part of the open-source Quantum ESPRESSO suite
     for quantum simulation of materials; please cite
         "P. Giannozzi et al., J. Phys.:Condens. Matter 21 395502 (2009);
         "P. Giannozzi et al., J. Phys.:Condens. Matter 29 465901 (2017);
         "P. Giannozzi et al., J. Chem. Phys. 152 154105 (2020);
          URL http://www.quantum-espresso.org", 
     in publications or presentations arising from this work. More details at
     http://www.quantum-espresso.org/quote

     Parallel version (MPI), running on     1 processors

     MPI processes distributed on     1 nodes
     242 MiB available memory on the printing compute node when the environment starts

     Reading input from 2.si.bands.in

     Current dimensions of program PWSCF are:
     Max number of different atomic species (ntypx) = 10
     Max number of k-points (npk) =  40000
     Max angular momentum in pseudopotentials (lmaxx) =  4
     file Si.pbe-n-kjpaw_psl.1.0.0.UPF: wavefunction(s)  3S 3P renormalized

     Atomic positions and unit cell read from directory:
     ./tmp/silicon.save/


     Subspace diagonalization in iterative solution of the eigenvalue problem:
     a serial algorithm will be used


     G-vector sticks info
     --------------------
     sticks:   dense  smooth     PW     G-vecs:    dense   smooth      PW
     Sum        1789     859    253                50237    16625    2685

     Using Slab Decomposition



     bravais-lattice index     =            2
     lattice parameter (alat)  =      10.2076  a.u.
     unit-cell volume          =     265.8955 (a.u.)^3
     number of atoms/cell      =            2
     number of atomic types    =            1
     number of electrons       =         8.00
     number of Kohn-Sham states=           30
     kinetic-energy cutoff     =      60.0000  Ry
     charge density cutoff     =     500.0000  Ry
     Exchange-correlation= SLA  PW   PBX  PBC
                           (   1   4   3   4   0   0   0)

     celldm(1)=  10.207600  celldm(2)=   0.000000  celldm(3)=   0.000000
     celldm(4)=   0.000000  celldm(5)=   0.000000  celldm(6)=   0.000000

     crystal axes: (cart. coord. in units of alat)
               a(1) = (  -0.500000   0.000000   0.500000 )  
               a(2) = (   0.000000   0.500000   0.500000 )  
               a(3) = (  -0.500000   0.500000   0.000000 )  

     reciprocal axes: (cart. coord. in units 2 pi/alat)
               b(1) = ( -1.000000 -1.000000  1.000000 )  
               b(2) = (  1.000000  1.000000  1.000000 )  
               b(3) = ( -1.000000  1.000000 -1.000000 )  


     PseudoPot. # 1 for Si read from file:
     ./Si.pbe-n-kjpaw_psl.1.0.0.UPF
     MD5 check sum: c39c59da582df4a0d9f10159256ea34e
     Pseudo is Projector augmented-wave + core cor, Zval =  4.0
     Generated using &quot;atomic&quot; code by A. Dal Corso  v.6.3
     Shape of augmentation charge: PSQ
     Using radial grid of 1141 points,  6 beta functions with: 
                l(1) =   0
                l(2) =   0
                l(3) =   1
                l(4) =   1
                l(5) =   2
                l(6) =   2
     Q(r) pseudized with 0 coefficients 


     atomic species   valence    mass     pseudopotential
        Si             4.00    28.08600     Si( 1.00)

     48 Sym. Ops., with inversion, found (24 have fractional translation)


                                    s                        frac. trans.

      isym =  1     identity                                     

 cryst.   s( 1) = (     1          0          0      )
                  (     0          1          0      )
                  (     0          0          1      )

 cart.    s( 1) = (  1.0000000  0.0000000  0.0000000 )
                  (  0.0000000  1.0000000  0.0000000 )
                  (  0.0000000  0.0000000  1.0000000 )


      isym =  2     180 deg rotation - cart. axis [0,0,1]        

 cryst.   s( 2) = (     0          1         -1      )
                  (     1          0         -1      )
                  (     0          0         -1      )

 cart.    s( 2) = ( -1.0000000  0.0000000  0.0000000 )
                  (  0.0000000 -1.0000000  0.0000000 )
                  (  0.0000000  0.0000000  1.0000000 )


      isym =  3     180 deg rotation - cart. axis [0,1,0]        

 cryst.   s( 3) = (    -1          0          0      )
                  (    -1          0          1      )
                  (    -1          1          0      )

 cart.    s( 3) = ( -1.0000000  0.0000000  0.0000000 )
                  (  0.0000000  1.0000000  0.0000000 )
                  (  0.0000000  0.0000000 -1.0000000 )


      isym =  4     180 deg rotation - cart. axis [1,0,0]        

 cryst.   s( 4) = (     0         -1          1      )
                  (     0         -1          0      )
                  (     1         -1          0      )

 cart.    s( 4) = (  1.0000000  0.0000000  0.0000000 )
                  (  0.0000000 -1.0000000  0.0000000 )
                  (  0.0000000  0.0000000 -1.0000000 )


      isym =  5     180 deg rotation - cart. axis [1,1,0]        

 cryst.   s( 5) = (     0         -1          0      )    f =(  0.2500000 )
                  (    -1          0          0      )       (  0.2500000 )
                  (     0          0         -1      )       (  0.2500000 )

 cart.    s( 5) = (  0.0000000  1.0000000  0.0000000 )    f =( -0.2500000 )
                  (  1.0000000  0.0000000  0.0000000 )       (  0.2500000 )
                  (  0.0000000  0.0000000 -1.0000000 )       (  0.2500000 )


      isym =  6     180 deg rotation - cart. axis [1,-1,0]       

 cryst.   s( 6) = (    -1          0          1      )    f =(  0.2500000 )
                  (     0         -1          1      )       (  0.2500000 )
                  (     0          0          1      )       (  0.2500000 )

 cart.    s( 6) = (  0.0000000 -1.0000000  0.0000000 )    f =( -0.2500000 )
                  ( -1.0000000  0.0000000  0.0000000 )       (  0.2500000 )
                  (  0.0000000  0.0000000 -1.0000000 )       (  0.2500000 )


      isym =  7      90 deg rotation - cart. axis [0,0,-1]       

 cryst.   s( 7) = (     0          1          0      )    f =(  0.2500000 )
                  (     0          1         -1      )       (  0.2500000 )
                  (    -1          1          0      )       (  0.2500000 )

 cart.    s( 7) = (  0.0000000  1.0000000  0.0000000 )    f =( -0.2500000 )
                  ( -1.0000000  0.0000000  0.0000000 )       (  0.2500000 )
                  (  0.0000000  0.0000000  1.0000000 )       (  0.2500000 )


      isym =  8      90 deg rotation - cart. axis [0,0,1]        

 cryst.   s( 8) = (     1          0         -1      )    f =(  0.2500000 )
                  (     1          0          0      )       (  0.2500000 )
                  (     1         -1          0      )       (  0.2500000 )

 cart.    s( 8) = (  0.0000000 -1.0000000  0.0000000 )    f =( -0.2500000 )
                  (  1.0000000  0.0000000  0.0000000 )       (  0.2500000 )
                  (  0.0000000  0.0000000  1.0000000 )       (  0.2500000 )


      isym =  9     180 deg rotation - cart. axis [1,0,1]        

 cryst.   s( 9) = (    -1          0          0      )    f =(  0.2500000 )
                  (     0          0         -1      )       (  0.2500000 )
                  (     0         -1          0      )       (  0.2500000 )

 cart.    s( 9) = (  0.0000000  0.0000000  1.0000000 )    f =( -0.2500000 )
                  (  0.0000000 -1.0000000  0.0000000 )       (  0.2500000 )
                  (  1.0000000  0.0000000  0.0000000 )       (  0.2500000 )


      isym = 10     180 deg rotation - cart. axis [-1,0,1]       

 cryst.   s(10) = (     1          0          0      )    f =(  0.2500000 )
                  (     1         -1          0      )       (  0.2500000 )
                  (     1          0         -1      )       (  0.2500000 )

 cart.    s(10) = (  0.0000000  0.0000000 -1.0000000 )    f =( -0.2500000 )
                  (  0.0000000 -1.0000000  0.0000000 )       (  0.2500000 )
                  ( -1.0000000  0.0000000  0.0000000 )       (  0.2500000 )


      isym = 11      90 deg rotation - cart. axis [0,1,0]        

 cryst.   s(11) = (     0          1         -1      )    f =(  0.2500000 )
                  (    -1          1          0      )       (  0.2500000 )
                  (     0          1          0      )       (  0.2500000 )

 cart.    s(11) = (  0.0000000  0.0000000  1.0000000 )    f =( -0.2500000 )
                  (  0.0000000  1.0000000  0.0000000 )       (  0.2500000 )
                  ( -1.0000000  0.0000000  0.0000000 )       (  0.2500000 )


      isym = 12      90 deg rotation - cart. axis [0,-1,0]       

 cryst.   s(12) = (     0         -1          1      )    f =(  0.2500000 )
                  (     0          0          1      )       (  0.2500000 )
                  (    -1          0          1      )       (  0.2500000 )

 cart.    s(12) = (  0.0000000  0.0000000 -1.0000000 )    f =( -0.2500000 )
                  (  0.0000000  1.0000000  0.0000000 )       (  0.2500000 )
                  (  1.0000000  0.0000000  0.0000000 )       (  0.2500000 )


      isym = 13     180 deg rotation - cart. axis [0,1,1]        

 cryst.   s(13) = (    -1          1          0      )    f =(  0.2500000 )
                  (     0          1          0      )       (  0.2500000 )
                  (     0          1         -1      )       (  0.2500000 )

 cart.    s(13) = ( -1.0000000  0.0000000  0.0000000 )    f =( -0.2500000 )
                  (  0.0000000  0.0000000  1.0000000 )       (  0.2500000 )
                  (  0.0000000  1.0000000  0.0000000 )       (  0.2500000 )


      isym = 14     180 deg rotation - cart. axis [0,1,-1]       

 cryst.   s(14) = (     0          0         -1      )    f =(  0.2500000 )
                  (     0         -1          0      )       (  0.2500000 )
                  (    -1          0          0      )       (  0.2500000 )

 cart.    s(14) = ( -1.0000000  0.0000000  0.0000000 )    f =( -0.2500000 )
                  (  0.0000000  0.0000000 -1.0000000 )       (  0.2500000 )
                  (  0.0000000 -1.0000000  0.0000000 )       (  0.2500000 )


      isym = 15      90 deg rotation - cart. axis [-1,0,0]       

 cryst.   s(15) = (     0          0          1      )    f =(  0.2500000 )
                  (    -1          0          1      )       (  0.2500000 )
                  (     0         -1          1      )       (  0.2500000 )

 cart.    s(15) = (  1.0000000  0.0000000  0.0000000 )    f =( -0.2500000 )
                  (  0.0000000  0.0000000  1.0000000 )       (  0.2500000 )
                  (  0.0000000 -1.0000000  0.0000000 )       (  0.2500000 )


      isym = 16      90 deg rotation - cart. axis [1,0,0]        

 cryst.   s(16) = (     1         -1          0      )    f =(  0.2500000 )
                  (     1          0         -1      )       (  0.2500000 )
                  (     1          0          0      )       (  0.2500000 )

 cart.    s(16) = (  1.0000000  0.0000000  0.0000000 )    f =( -0.2500000 )
                  (  0.0000000  0.0000000 -1.0000000 )       (  0.2500000 )
                  (  0.0000000  1.0000000  0.0000000 )       (  0.2500000 )


      isym = 17     120 deg rotation - cart. axis [-1,-1,-1]     

 cryst.   s(17) = (    -1          0          1      )
                  (    -1          1          0      )
                  (    -1          0          0      )

 cart.    s(17) = (  0.0000000  1.0000000  0.0000000 )
                  (  0.0000000  0.0000000  1.0000000 )
                  (  1.0000000  0.0000000  0.0000000 )


      isym = 18     120 deg rotation - cart. axis [-1,1,1]       

 cryst.   s(18) = (     0          1          0      )
                  (     0          0          1      )
                  (     1          0          0      )

 cart.    s(18) = (  0.0000000 -1.0000000  0.0000000 )
                  (  0.0000000  0.0000000  1.0000000 )
                  ( -1.0000000  0.0000000  0.0000000 )


      isym = 19     120 deg rotation - cart. axis [1,1,-1]       

 cryst.   s(19) = (     1          0         -1      )
                  (     0          0         -1      )
                  (     0          1         -1      )

 cart.    s(19) = (  0.0000000  1.0000000  0.0000000 )
                  (  0.0000000  0.0000000 -1.0000000 )
                  ( -1.0000000  0.0000000  0.0000000 )


      isym = 20     120 deg rotation - cart. axis [1,-1,1]       

 cryst.   s(20) = (     0         -1          0      )
                  (     1         -1          0      )
                  (     0         -1          1      )

 cart.    s(20) = (  0.0000000 -1.0000000  0.0000000 )
                  (  0.0000000  0.0000000 -1.0000000 )
                  (  1.0000000  0.0000000  0.0000000 )


      isym = 21     120 deg rotation - cart. axis [1,1,1]        

 cryst.   s(21) = (     0          0         -1      )
                  (     0          1         -1      )
                  (     1          0         -1      )

 cart.    s(21) = (  0.0000000  0.0000000  1.0000000 )
                  (  1.0000000  0.0000000  0.0000000 )
                  (  0.0000000  1.0000000  0.0000000 )


      isym = 22     120 deg rotation - cart. axis [-1,1,-1]      

 cryst.   s(22) = (    -1          1          0      )
                  (    -1          0          0      )
                  (    -1          0          1      )

 cart.    s(22) = (  0.0000000  0.0000000  1.0000000 )
                  ( -1.0000000  0.0000000  0.0000000 )
                  (  0.0000000 -1.0000000  0.0000000 )


      isym = 23     120 deg rotation - cart. axis [1,-1,-1]      

 cryst.   s(23) = (     0          0          1      )
                  (     1          0          0      )
                  (     0          1          0      )

 cart.    s(23) = (  0.0000000  0.0000000 -1.0000000 )
                  ( -1.0000000  0.0000000  0.0000000 )
                  (  0.0000000  1.0000000  0.0000000 )


      isym = 24     120 deg rotation - cart. axis [-1,-1,1]      

 cryst.   s(24) = (     1         -1          0      )
                  (     0         -1          1      )
                  (     0         -1          0      )

 cart.    s(24) = (  0.0000000  0.0000000 -1.0000000 )
                  (  1.0000000  0.0000000  0.0000000 )
                  (  0.0000000 -1.0000000  0.0000000 )


      isym = 25     inversion                                    

 cryst.   s(25) = (    -1          0          0      )    f =(  0.2500000 )
                  (     0         -1          0      )       (  0.2500000 )
                  (     0          0         -1      )       (  0.2500000 )

 cart.    s(25) = ( -1.0000000  0.0000000  0.0000000 )    f =( -0.2500000 )
                  (  0.0000000 -1.0000000  0.0000000 )       (  0.2500000 )
                  (  0.0000000  0.0000000 -1.0000000 )       (  0.2500000 )


      isym = 26     inv. 180 deg rotation - cart. axis [0,0,1]   

 cryst.   s(26) = (     0         -1          1      )    f =(  0.2500000 )
                  (    -1          0          1      )       (  0.2500000 )
                  (     0          0          1      )       (  0.2500000 )

 cart.    s(26) = (  1.0000000  0.0000000  0.0000000 )    f =( -0.2500000 )
                  (  0.0000000  1.0000000  0.0000000 )       (  0.2500000 )
                  (  0.0000000  0.0000000 -1.0000000 )       (  0.2500000 )


      isym = 27     inv. 180 deg rotation - cart. axis [0,1,0]   

 cryst.   s(27) = (     1          0          0      )    f =(  0.2500000 )
                  (     1          0         -1      )       (  0.2500000 )
                  (     1         -1          0      )       (  0.2500000 )

 cart.    s(27) = (  1.0000000  0.0000000  0.0000000 )    f =( -0.2500000 )
                  (  0.0000000 -1.0000000  0.0000000 )       (  0.2500000 )
                  (  0.0000000  0.0000000  1.0000000 )       (  0.2500000 )


      isym = 28     inv. 180 deg rotation - cart. axis [1,0,0]   

 cryst.   s(28) = (     0          1         -1      )    f =(  0.2500000 )
                  (     0          1          0      )       (  0.2500000 )
                  (    -1          1          0      )       (  0.2500000 )

 cart.    s(28) = ( -1.0000000  0.0000000  0.0000000 )    f =( -0.2500000 )
                  (  0.0000000  1.0000000  0.0000000 )       (  0.2500000 )
                  (  0.0000000  0.0000000  1.0000000 )       (  0.2500000 )


      isym = 29     inv. 180 deg rotation - cart. axis [1,1,0]   

 cryst.   s(29) = (     0          1          0      )
                  (     1          0          0      )
                  (     0          0          1      )

 cart.    s(29) = (  0.0000000 -1.0000000  0.0000000 )
                  ( -1.0000000  0.0000000  0.0000000 )
                  (  0.0000000  0.0000000  1.0000000 )


      isym = 30     inv. 180 deg rotation - cart. axis [1,-1,0]  

 cryst.   s(30) = (     1          0         -1      )
                  (     0          1         -1      )
                  (     0          0         -1      )

 cart.    s(30) = (  0.0000000  1.0000000  0.0000000 )
                  (  1.0000000  0.0000000  0.0000000 )
                  (  0.0000000  0.0000000  1.0000000 )


      isym = 31     inv.  90 deg rotation - cart. axis [0,0,-1]  

 cryst.   s(31) = (     0         -1          0      )
                  (     0         -1          1      )
                  (     1         -1          0      )

 cart.    s(31) = (  0.0000000 -1.0000000  0.0000000 )
                  (  1.0000000  0.0000000  0.0000000 )
                  (  0.0000000  0.0000000 -1.0000000 )


      isym = 32     inv.  90 deg rotation - cart. axis [0,0,1]   

 cryst.   s(32) = (    -1          0          1      )
                  (    -1          0          0      )
                  (    -1          1          0      )

 cart.    s(32) = (  0.0000000  1.0000000  0.0000000 )
                  ( -1.0000000  0.0000000  0.0000000 )
                  (  0.0000000  0.0000000 -1.0000000 )


      isym = 33     inv. 180 deg rotation - cart. axis [1,0,1]   

 cryst.   s(33) = (     1          0          0      )
                  (     0          0          1      )
                  (     0          1          0      )

 cart.    s(33) = (  0.0000000  0.0000000 -1.0000000 )
                  (  0.0000000  1.0000000  0.0000000 )
                  ( -1.0000000  0.0000000  0.0000000 )


      isym = 34     inv. 180 deg rotation - cart. axis [-1,0,1]  

 cryst.   s(34) = (    -1          0          0      )
                  (    -1          1          0      )
                  (    -1          0          1      )

 cart.    s(34) = (  0.0000000  0.0000000  1.0000000 )
                  (  0.0000000  1.0000000  0.0000000 )
                  (  1.0000000  0.0000000  0.0000000 )


      isym = 35     inv.  90 deg rotation - cart. axis [0,1,0]   

 cryst.   s(35) = (     0         -1          1      )
                  (     1         -1          0      )
                  (     0         -1          0      )

 cart.    s(35) = (  0.0000000  0.0000000 -1.0000000 )
                  (  0.0000000 -1.0000000  0.0000000 )
                  (  1.0000000  0.0000000  0.0000000 )


      isym = 36     inv.  90 deg rotation - cart. axis [0,-1,0]  

 cryst.   s(36) = (     0          1         -1      )
                  (     0          0         -1      )
                  (     1          0         -1      )

 cart.    s(36) = (  0.0000000  0.0000000  1.0000000 )
                  (  0.0000000 -1.0000000  0.0000000 )
                  ( -1.0000000  0.0000000  0.0000000 )


      isym = 37     inv. 180 deg rotation - cart. axis [0,1,1]   

 cryst.   s(37) = (     1         -1          0      )
                  (     0         -1          0      )
                  (     0         -1          1      )

 cart.    s(37) = (  1.0000000  0.0000000  0.0000000 )
                  (  0.0000000  0.0000000 -1.0000000 )
                  (  0.0000000 -1.0000000  0.0000000 )


      isym = 38     inv. 180 deg rotation - cart. axis [0,1,-1]  

 cryst.   s(38) = (     0          0          1      )
                  (     0          1          0      )
                  (     1          0          0      )

 cart.    s(38) = (  1.0000000  0.0000000  0.0000000 )
                  (  0.0000000  0.0000000  1.0000000 )
                  (  0.0000000  1.0000000  0.0000000 )


      isym = 39     inv.  90 deg rotation - cart. axis [-1,0,0]  

 cryst.   s(39) = (     0          0         -1      )
                  (     1          0         -1      )
                  (     0          1         -1      )

 cart.    s(39) = ( -1.0000000  0.0000000  0.0000000 )
                  (  0.0000000  0.0000000 -1.0000000 )
                  (  0.0000000  1.0000000  0.0000000 )


      isym = 40     inv.  90 deg rotation - cart. axis [1,0,0]   

 cryst.   s(40) = (    -1          1          0      )
                  (    -1          0          1      )
                  (    -1          0          0      )

 cart.    s(40) = ( -1.0000000  0.0000000  0.0000000 )
                  (  0.0000000  0.0000000  1.0000000 )
                  (  0.0000000 -1.0000000  0.0000000 )


      isym = 41     inv. 120 deg rotation - cart. axis [-1,-1,-1]

 cryst.   s(41) = (     1          0         -1      )    f =(  0.2500000 )
                  (     1         -1          0      )       (  0.2500000 )
                  (     1          0          0      )       (  0.2500000 )

 cart.    s(41) = (  0.0000000 -1.0000000  0.0000000 )    f =( -0.2500000 )
                  (  0.0000000  0.0000000 -1.0000000 )       (  0.2500000 )
                  ( -1.0000000  0.0000000  0.0000000 )       (  0.2500000 )


      isym = 42     inv. 120 deg rotation - cart. axis [-1,1,1]  

 cryst.   s(42) = (     0         -1          0      )    f =(  0.2500000 )
                  (     0          0         -1      )       (  0.2500000 )
                  (    -1          0          0      )       (  0.2500000 )

 cart.    s(42) = (  0.0000000  1.0000000  0.0000000 )    f =( -0.2500000 )
                  (  0.0000000  0.0000000 -1.0000000 )       (  0.2500000 )
                  (  1.0000000  0.0000000  0.0000000 )       (  0.2500000 )


      isym = 43     inv. 120 deg rotation - cart. axis [1,1,-1]  

 cryst.   s(43) = (    -1          0          1      )    f =(  0.2500000 )
                  (     0          0          1      )       (  0.2500000 )
                  (     0         -1          1      )       (  0.2500000 )

 cart.    s(43) = (  0.0000000 -1.0000000  0.0000000 )    f =( -0.2500000 )
                  (  0.0000000  0.0000000  1.0000000 )       (  0.2500000 )
                  (  1.0000000  0.0000000  0.0000000 )       (  0.2500000 )


      isym = 44     inv. 120 deg rotation - cart. axis [1,-1,1]  

 cryst.   s(44) = (     0          1          0      )    f =(  0.2500000 )
                  (    -1          1          0      )       (  0.2500000 )
                  (     0          1         -1      )       (  0.2500000 )

 cart.    s(44) = (  0.0000000  1.0000000  0.0000000 )    f =( -0.2500000 )
                  (  0.0000000  0.0000000  1.0000000 )       (  0.2500000 )
                  ( -1.0000000  0.0000000  0.0000000 )       (  0.2500000 )


      isym = 45     inv. 120 deg rotation - cart. axis [1,1,1]   

 cryst.   s(45) = (     0          0          1      )    f =(  0.2500000 )
                  (     0         -1          1      )       (  0.2500000 )
                  (    -1          0          1      )       (  0.2500000 )

 cart.    s(45) = (  0.0000000  0.0000000 -1.0000000 )    f =( -0.2500000 )
                  ( -1.0000000  0.0000000  0.0000000 )       (  0.2500000 )
                  (  0.0000000 -1.0000000  0.0000000 )       (  0.2500000 )


      isym = 46     inv. 120 deg rotation - cart. axis [-1,1,-1] 

 cryst.   s(46) = (     1         -1          0      )    f =(  0.2500000 )
                  (     1          0          0      )       (  0.2500000 )
                  (     1          0         -1      )       (  0.2500000 )

 cart.    s(46) = (  0.0000000  0.0000000 -1.0000000 )    f =( -0.2500000 )
                  (  1.0000000  0.0000000  0.0000000 )       (  0.2500000 )
                  (  0.0000000  1.0000000  0.0000000 )       (  0.2500000 )


      isym = 47     inv. 120 deg rotation - cart. axis [1,-1,-1] 

 cryst.   s(47) = (     0          0         -1      )    f =(  0.2500000 )
                  (    -1          0          0      )       (  0.2500000 )
                  (     0         -1          0      )       (  0.2500000 )

 cart.    s(47) = (  0.0000000  0.0000000  1.0000000 )    f =( -0.2500000 )
                  (  1.0000000  0.0000000  0.0000000 )       (  0.2500000 )
                  (  0.0000000 -1.0000000  0.0000000 )       (  0.2500000 )


      isym = 48     inv. 120 deg rotation - cart. axis [-1,-1,1] 

 cryst.   s(48) = (    -1          1          0      )    f =(  0.2500000 )
                  (     0          1         -1      )       (  0.2500000 )
                  (     0          1          0      )       (  0.2500000 )

 cart.    s(48) = (  0.0000000  0.0000000  1.0000000 )    f =( -0.2500000 )
                  ( -1.0000000  0.0000000  0.0000000 )       (  0.2500000 )
                  (  0.0000000  1.0000000  0.0000000 )       (  0.2500000 )


     point group O_h (m-3m) 
     there are 10 classes
     the character table:

       E     8C3   3C2   6C4   6C2'  i     8S6   3s_h  6S4   6s_d 
A_1g   1.00  1.00  1.00  1.00  1.00  1.00  1.00  1.00  1.00  1.00
A_2g   1.00  1.00  1.00 -1.00 -1.00  1.00  1.00  1.00 -1.00 -1.00
E_g    2.00 -1.00  2.00  0.00  0.00  2.00 -1.00  2.00  0.00  0.00
T_1g   3.00  0.00 -1.00  1.00 -1.00  3.00  0.00 -1.00  1.00 -1.00
T_2g   3.00  0.00 -1.00 -1.00  1.00  3.00  0.00 -1.00 -1.00  1.00
A_1u   1.00  1.00  1.00  1.00  1.00 -1.00 -1.00 -1.00 -1.00 -1.00
A_2u   1.00  1.00  1.00 -1.00 -1.00 -1.00 -1.00 -1.00  1.00  1.00
E_u    2.00 -1.00  2.00  0.00  0.00 -2.00  1.00 -2.00  0.00  0.00
T_1u   3.00  0.00 -1.00  1.00 -1.00 -3.00  0.00  1.00 -1.00  1.00
T_2u   3.00  0.00 -1.00 -1.00  1.00 -3.00  0.00  1.00  1.00 -1.00

     the symmetry operations in each class and the name of the first element:

     E        1
          identity                                               
     8C3     17   19   20   18   24   21   22   23
          120 deg rotation - cart. axis [-1,-1,-1]               
     3C2      2    4    3
          180 deg rotation - cart. axis [0,0,1]                  
     6C4      7    8   15   16   12   11
           90 deg rotation - cart. axis [0,0,-1]                 
     6C2'     5    6   14   13   10    9
          180 deg rotation - cart. axis [1,1,0]                  
     i       25
          inversion                                              
     8S6     41   43   44   42   48   45   46   47
          inv. 120 deg rotation - cart. axis [-1,-1,-1]          
     3s_h    26   28   27
          inv. 180 deg rotation - cart. axis [0,0,1]             
     6S4     31   32   39   40   36   35
          inv.  90 deg rotation - cart. axis [0,0,-1]            
     6s_d    29   30   38   37   34   33
          inv. 180 deg rotation - cart. axis [1,1,0]             

   Cartesian axes

     site n.     atom                  positions (alat units)
         1           Si  tau(   1) = (   0.0000000   0.0000000   0.0000000  )
         2           Si  tau(   2) = (   0.2500000   0.2500000   0.2500000  )

   Crystallographic axes

     site n.     atom                  positions (cryst. coord.)
         1           Si  tau(   1) = (  0.0000000  0.0000000  0.0000000  )
         2           Si  tau(   2) = ( -0.2500000  0.7500000 -0.2500000  )

     number of k points=    91
                       cart. coord. in units 2pi/alat
        k(    1) = (   0.5000000   0.5000000   0.5000000), wk =   0.0219780
        k(    2) = (   0.4750000   0.4750000   0.4750000), wk =   0.0219780
        k(    3) = (   0.4500000   0.4500000   0.4500000), wk =   0.0219780
        k(    4) = (   0.4250000   0.4250000   0.4250000), wk =   0.0219780
        k(    5) = (   0.4000000   0.4000000   0.4000000), wk =   0.0219780
        k(    6) = (   0.3750000   0.3750000   0.3750000), wk =   0.0219780
        k(    7) = (   0.3500000   0.3500000   0.3500000), wk =   0.0219780
        k(    8) = (   0.3250000   0.3250000   0.3250000), wk =   0.0219780
        k(    9) = (   0.3000000   0.3000000   0.3000000), wk =   0.0219780
        k(   10) = (   0.2750000   0.2750000   0.2750000), wk =   0.0219780
        k(   11) = (   0.2500000   0.2500000   0.2500000), wk =   0.0219780
        k(   12) = (   0.2250000   0.2250000   0.2250000), wk =   0.0219780
        k(   13) = (   0.2000000   0.2000000   0.2000000), wk =   0.0219780
        k(   14) = (   0.1750000   0.1750000   0.1750000), wk =   0.0219780
        k(   15) = (   0.1500000   0.1500000   0.1500000), wk =   0.0219780
        k(   16) = (   0.1250000   0.1250000   0.1250000), wk =   0.0219780
        k(   17) = (   0.1000000   0.1000000   0.1000000), wk =   0.0219780
        k(   18) = (   0.0750000   0.0750000   0.0750000), wk =   0.0219780
        k(   19) = (   0.0500000   0.0500000   0.0500000), wk =   0.0219780
        k(   20) = (   0.0250000   0.0250000   0.0250000), wk =   0.0219780
        k(   21) = (   0.0000000   0.0000000   0.0000000), wk =   0.0219780
        k(   22) = (   0.0333333   0.0000000   0.0000000), wk =   0.0219780
        k(   23) = (   0.0666667   0.0000000   0.0000000), wk =   0.0219780
        k(   24) = (   0.1000000   0.0000000   0.0000000), wk =   0.0219780
        k(   25) = (   0.1333333   0.0000000   0.0000000), wk =   0.0219780
        k(   26) = (   0.1666667   0.0000000   0.0000000), wk =   0.0219780
        k(   27) = (   0.2000000   0.0000000   0.0000000), wk =   0.0219780
        k(   28) = (   0.2333333   0.0000000   0.0000000), wk =   0.0219780
        k(   29) = (   0.2666667   0.0000000   0.0000000), wk =   0.0219780
        k(   30) = (   0.3000000   0.0000000   0.0000000), wk =   0.0219780
        k(   31) = (   0.3333333   0.0000000   0.0000000), wk =   0.0219780
        k(   32) = (   0.3666667   0.0000000   0.0000000), wk =   0.0219780
        k(   33) = (   0.4000000   0.0000000   0.0000000), wk =   0.0219780
        k(   34) = (   0.4333333   0.0000000   0.0000000), wk =   0.0219780
        k(   35) = (   0.4666667   0.0000000   0.0000000), wk =   0.0219780
        k(   36) = (   0.5000000   0.0000000   0.0000000), wk =   0.0219780
        k(   37) = (   0.5333333   0.0000000   0.0000000), wk =   0.0219780
        k(   38) = (   0.5666667   0.0000000   0.0000000), wk =   0.0219780
        k(   39) = (   0.6000000   0.0000000   0.0000000), wk =   0.0219780
        k(   40) = (   0.6333333   0.0000000   0.0000000), wk =   0.0219780
        k(   41) = (   0.6666667   0.0000000   0.0000000), wk =   0.0219780
        k(   42) = (   0.7000000   0.0000000   0.0000000), wk =   0.0219780
        k(   43) = (   0.7333333   0.0000000   0.0000000), wk =   0.0219780
        k(   44) = (   0.7666667   0.0000000   0.0000000), wk =   0.0219780
        k(   45) = (   0.8000000   0.0000000   0.0000000), wk =   0.0219780
        k(   46) = (   0.8333333   0.0000000   0.0000000), wk =   0.0219780
        k(   47) = (   0.8666667   0.0000000   0.0000000), wk =   0.0219780
        k(   48) = (   0.9000000   0.0000000   0.0000000), wk =   0.0219780
        k(   49) = (   0.9333333   0.0000000   0.0000000), wk =   0.0219780
        k(   50) = (   0.9666667   0.0000000   0.0000000), wk =   0.0219780
        k(   51) = (   1.0000000   0.0000000   0.0000000), wk =   0.0219780
        k(   52) = (   1.0000000   0.0250000   0.0250000), wk =   0.0219780
        k(   53) = (   1.0000000   0.0500000   0.0500000), wk =   0.0219780
        k(   54) = (   1.0000000   0.0750000   0.0750000), wk =   0.0219780
        k(   55) = (   1.0000000   0.1000000   0.1000000), wk =   0.0219780
        k(   56) = (   1.0000000   0.1250000   0.1250000), wk =   0.0219780
        k(   57) = (   1.0000000   0.1500000   0.1500000), wk =   0.0219780
        k(   58) = (   1.0000000   0.1750000   0.1750000), wk =   0.0219780
        k(   59) = (   1.0000000   0.2000000   0.2000000), wk =   0.0219780
        k(   60) = (   1.0000000   0.2250000   0.2250000), wk =   0.0219780
        k(   61) = (   1.0000000   0.2500000   0.2500000), wk =   0.0219780
        k(   62) = (   0.9666667   0.2416667   0.2416667), wk =   0.0219780
        k(   63) = (   0.9333333   0.2333333   0.2333333), wk =   0.0219780
        k(   64) = (   0.9000000   0.2250000   0.2250000), wk =   0.0219780
        k(   65) = (   0.8666667   0.2166667   0.2166667), wk =   0.0219780
        k(   66) = (   0.8333333   0.2083333   0.2083333), wk =   0.0219780
        k(   67) = (   0.8000000   0.2000000   0.2000000), wk =   0.0219780
        k(   68) = (   0.7666667   0.1916667   0.1916667), wk =   0.0219780
        k(   69) = (   0.7333333   0.1833333   0.1833333), wk =   0.0219780
        k(   70) = (   0.7000000   0.1750000   0.1750000), wk =   0.0219780
        k(   71) = (   0.6666667   0.1666667   0.1666667), wk =   0.0219780
        k(   72) = (   0.6333333   0.1583333   0.1583333), wk =   0.0219780
        k(   73) = (   0.6000000   0.1500000   0.1500000), wk =   0.0219780
        k(   74) = (   0.5666667   0.1416667   0.1416667), wk =   0.0219780
        k(   75) = (   0.5333333   0.1333333   0.1333333), wk =   0.0219780
        k(   76) = (   0.5000000   0.1250000   0.1250000), wk =   0.0219780
        k(   77) = (   0.4666667   0.1166667   0.1166667), wk =   0.0219780
        k(   78) = (   0.4333333   0.1083333   0.1083333), wk =   0.0219780
        k(   79) = (   0.4000000   0.1000000   0.1000000), wk =   0.0219780
        k(   80) = (   0.3666667   0.0916667   0.0916667), wk =   0.0219780
        k(   81) = (   0.3333333   0.0833333   0.0833333), wk =   0.0219780
        k(   82) = (   0.3000000   0.0750000   0.0750000), wk =   0.0219780
        k(   83) = (   0.2666667   0.0666667   0.0666667), wk =   0.0219780
        k(   84) = (   0.2333333   0.0583333   0.0583333), wk =   0.0219780
        k(   85) = (   0.2000000   0.0500000   0.0500000), wk =   0.0219780
        k(   86) = (   0.1666667   0.0416667   0.0416667), wk =   0.0219780
        k(   87) = (   0.1333333   0.0333333   0.0333333), wk =   0.0219780
        k(   88) = (   0.1000000   0.0250000   0.0250000), wk =   0.0219780
        k(   89) = (   0.0666667   0.0166667   0.0166667), wk =   0.0219780
        k(   90) = (   0.0333333   0.0083333   0.0083333), wk =   0.0219780
        k(   91) = (   0.0000000   0.0000000   0.0000000), wk =   0.0219780

                       cryst. coord.
        k(    1) = (   0.0000000   0.5000000   0.0000000), wk =   0.0219780
        k(    2) = (   0.0000000   0.4750000   0.0000000), wk =   0.0219780
        k(    3) = (   0.0000000   0.4500000   0.0000000), wk =   0.0219780
        k(    4) = (   0.0000000   0.4250000   0.0000000), wk =   0.0219780
        k(    5) = (   0.0000000   0.4000000   0.0000000), wk =   0.0219780
        k(    6) = (   0.0000000   0.3750000   0.0000000), wk =   0.0219780
        k(    7) = (   0.0000000   0.3500000   0.0000000), wk =   0.0219780
        k(    8) = (   0.0000000   0.3250000   0.0000000), wk =   0.0219780
        k(    9) = (   0.0000000   0.3000000   0.0000000), wk =   0.0219780
        k(   10) = (   0.0000000   0.2750000   0.0000000), wk =   0.0219780
        k(   11) = (   0.0000000   0.2500000   0.0000000), wk =   0.0219780
        k(   12) = (   0.0000000   0.2250000   0.0000000), wk =   0.0219780
        k(   13) = (   0.0000000   0.2000000   0.0000000), wk =   0.0219780
        k(   14) = (   0.0000000   0.1750000   0.0000000), wk =   0.0219780
        k(   15) = (   0.0000000   0.1500000   0.0000000), wk =   0.0219780
        k(   16) = (   0.0000000   0.1250000   0.0000000), wk =   0.0219780
        k(   17) = (   0.0000000   0.1000000   0.0000000), wk =   0.0219780
        k(   18) = (   0.0000000   0.0750000   0.0000000), wk =   0.0219780
        k(   19) = (   0.0000000   0.0500000   0.0000000), wk =   0.0219780
        k(   20) = (   0.0000000   0.0250000   0.0000000), wk =   0.0219780
        k(   21) = (   0.0000000   0.0000000   0.0000000), wk =   0.0219780
        k(   22) = (  -0.0166667   0.0000000  -0.0166667), wk =   0.0219780
        k(   23) = (  -0.0333333   0.0000000  -0.0333333), wk =   0.0219780
        k(   24) = (  -0.0500000   0.0000000  -0.0500000), wk =   0.0219780
        k(   25) = (  -0.0666667   0.0000000  -0.0666667), wk =   0.0219780
        k(   26) = (  -0.0833333   0.0000000  -0.0833333), wk =   0.0219780
        k(   27) = (  -0.1000000   0.0000000  -0.1000000), wk =   0.0219780
        k(   28) = (  -0.1166667   0.0000000  -0.1166667), wk =   0.0219780
        k(   29) = (  -0.1333333   0.0000000  -0.1333333), wk =   0.0219780
        k(   30) = (  -0.1500000   0.0000000  -0.1500000), wk =   0.0219780
        k(   31) = (  -0.1666667   0.0000000  -0.1666667), wk =   0.0219780
        k(   32) = (  -0.1833333   0.0000000  -0.1833333), wk =   0.0219780
        k(   33) = (  -0.2000000   0.0000000  -0.2000000), wk =   0.0219780
        k(   34) = (  -0.2166667   0.0000000  -0.2166667), wk =   0.0219780
        k(   35) = (  -0.2333333   0.0000000  -0.2333333), wk =   0.0219780
        k(   36) = (  -0.2500000   0.0000000  -0.2500000), wk =   0.0219780
        k(   37) = (  -0.2666667   0.0000000  -0.2666667), wk =   0.0219780
        k(   38) = (  -0.2833333   0.0000000  -0.2833333), wk =   0.0219780
        k(   39) = (  -0.3000000   0.0000000  -0.3000000), wk =   0.0219780
        k(   40) = (  -0.3166667   0.0000000  -0.3166667), wk =   0.0219780
        k(   41) = (  -0.3333333   0.0000000  -0.3333333), wk =   0.0219780
        k(   42) = (  -0.3500000   0.0000000  -0.3500000), wk =   0.0219780
        k(   43) = (  -0.3666667   0.0000000  -0.3666667), wk =   0.0219780
        k(   44) = (  -0.3833333   0.0000000  -0.3833333), wk =   0.0219780
        k(   45) = (  -0.4000000   0.0000000  -0.4000000), wk =   0.0219780
        k(   46) = (  -0.4166667   0.0000000  -0.4166667), wk =   0.0219780
        k(   47) = (  -0.4333333   0.0000000  -0.4333333), wk =   0.0219780
        k(   48) = (  -0.4500000   0.0000000  -0.4500000), wk =   0.0219780
        k(   49) = (  -0.4666667   0.0000000  -0.4666667), wk =   0.0219780
        k(   50) = (  -0.4833333   0.0000000  -0.4833333), wk =   0.0219780
        k(   51) = (  -0.5000000   0.0000000  -0.5000000), wk =   0.0219780
        k(   52) = (  -0.4875000   0.0250000  -0.4875000), wk =   0.0219780
        k(   53) = (  -0.4750000   0.0500000  -0.4750000), wk =   0.0219780
        k(   54) = (  -0.4625000   0.0750000  -0.4625000), wk =   0.0219780
        k(   55) = (  -0.4500000   0.1000000  -0.4500000), wk =   0.0219780
        k(   56) = (  -0.4375000   0.1250000  -0.4375000), wk =   0.0219780
        k(   57) = (  -0.4250000   0.1500000  -0.4250000), wk =   0.0219780
        k(   58) = (  -0.4125000   0.1750000  -0.4125000), wk =   0.0219780
        k(   59) = (  -0.4000000   0.2000000  -0.4000000), wk =   0.0219780
        k(   60) = (  -0.3875000   0.2250000  -0.3875000), wk =   0.0219780
        k(   61) = (  -0.3750000   0.2500000  -0.3750000), wk =   0.0219780
        k(   62) = (  -0.3625000   0.2416667  -0.3625000), wk =   0.0219780
        k(   63) = (  -0.3500000   0.2333333  -0.3500000), wk =   0.0219780
        k(   64) = (  -0.3375000   0.2250000  -0.3375000), wk =   0.0219780
        k(   65) = (  -0.3250000   0.2166667  -0.3250000), wk =   0.0219780
        k(   66) = (  -0.3125000   0.2083333  -0.3125000), wk =   0.0219780
        k(   67) = (  -0.3000000   0.2000000  -0.3000000), wk =   0.0219780
        k(   68) = (  -0.2875000   0.1916667  -0.2875000), wk =   0.0219780
        k(   69) = (  -0.2750000   0.1833333  -0.2750000), wk =   0.0219780
        k(   70) = (  -0.2625000   0.1750000  -0.2625000), wk =   0.0219780
        k(   71) = (  -0.2500000   0.1666667  -0.2500000), wk =   0.0219780
        k(   72) = (  -0.2375000   0.1583333  -0.2375000), wk =   0.0219780
        k(   73) = (  -0.2250000   0.1500000  -0.2250000), wk =   0.0219780
        k(   74) = (  -0.2125000   0.1416667  -0.2125000), wk =   0.0219780
        k(   75) = (  -0.2000000   0.1333333  -0.2000000), wk =   0.0219780
        k(   76) = (  -0.1875000   0.1250000  -0.1875000), wk =   0.0219780
        k(   77) = (  -0.1750000   0.1166667  -0.1750000), wk =   0.0219780
        k(   78) = (  -0.1625000   0.1083333  -0.1625000), wk =   0.0219780
        k(   79) = (  -0.1500000   0.1000000  -0.1500000), wk =   0.0219780
        k(   80) = (  -0.1375000   0.0916667  -0.1375000), wk =   0.0219780
        k(   81) = (  -0.1250000   0.0833333  -0.1250000), wk =   0.0219780
        k(   82) = (  -0.1125000   0.0750000  -0.1125000), wk =   0.0219780
        k(   83) = (  -0.1000000   0.0666667  -0.1000000), wk =   0.0219780
        k(   84) = (  -0.0875000   0.0583333  -0.0875000), wk =   0.0219780
        k(   85) = (  -0.0750000   0.0500000  -0.0750000), wk =   0.0219780
        k(   86) = (  -0.0625000   0.0416667  -0.0625000), wk =   0.0219780
        k(   87) = (  -0.0500000   0.0333333  -0.0500000), wk =   0.0219780
        k(   88) = (  -0.0375000   0.0250000  -0.0375000), wk =   0.0219780
        k(   89) = (  -0.0250000   0.0166667  -0.0250000), wk =   0.0219780
        k(   90) = (  -0.0125000   0.0083333  -0.0125000), wk =   0.0219780
        k(   91) = (   0.0000000   0.0000000   0.0000000), wk =   0.0219780

     Dense  grid:    50237 G-vectors     FFT dimensions: (  60,  60,  60)

     Smooth grid:    16625 G-vectors     FFT dimensions: (  36,  36,  36)

     Dynamical RAM for                 wfc:       0.96 MB

     Dynamical RAM for     wfc (w. buffer):       0.96 MB

     Dynamical RAM for           str. fact:       0.77 MB

     Dynamical RAM for           local pot:       0.00 MB

     Dynamical RAM for          nlocal pot:       1.15 MB

     Dynamical RAM for                qrad:       1.79 MB

     Dynamical RAM for          rho,v,vnew:       7.24 MB

     Dynamical RAM for           G-vectors:       3.00 MB

     Dynamical RAM for          h,s,v(r/c):       0.16 MB

     Dynamical RAM for          <psi|beta>:       0.02 MB

     Dynamical RAM for                 psi:       1.91 MB

     Dynamical RAM for                hpsi:       1.91 MB

     Dynamical RAM for                spsi:       1.91 MB

     Dynamical RAM for      wfcinit/wfcrot:       1.93 MB

     Dynamical RAM for           addusdens:     144.11 MB

     Estimated static dynamical RAM per process >      24.68 MB

     Estimated max dynamical RAM per process >     168.79 MB

     The potential is recalculated from file :
     ./tmp/silicon.save/charge-density

     Starting wfcs are    8 randomized atomic wfcs +   22 random wfcs
     Checking if some PAW data can be deallocated... 

     Band Structure Calculation
     Davidson diagonalization with overlap

     Computing kpt #:     1  of    91
     total cpu time spent up to now is        3.6 secs

     Computing kpt #:     2  of    91
     total cpu time spent up to now is        5.4 secs

     Computing kpt #:     3  of    91
     total cpu time spent up to now is        7.1 secs

     Computing kpt #:     4  of    91
     total cpu time spent up to now is        9.0 secs

     Computing kpt #:     5  of    91
     total cpu time spent up to now is       10.8 secs

     Computing kpt #:     6  of    91
     total cpu time spent up to now is       12.6 secs

     Computing kpt #:     7  of    91
     total cpu time spent up to now is       14.4 secs

     Computing kpt #:     8  of    91
     total cpu time spent up to now is       16.3 secs

     Computing kpt #:     9  of    91
     total cpu time spent up to now is       18.1 secs

     Computing kpt #:    10  of    91
     total cpu time spent up to now is       20.0 secs

     Computing kpt #:    11  of    91
     total cpu time spent up to now is       21.8 secs

     Computing kpt #:    12  of    91
     total cpu time spent up to now is       23.8 secs

     Computing kpt #:    13  of    91
     total cpu time spent up to now is       25.6 secs

     Computing kpt #:    14  of    91
     total cpu time spent up to now is       27.6 secs

     Computing kpt #:    15  of    91
     total cpu time spent up to now is       29.5 secs

     Computing kpt #:    16  of    91
     total cpu time spent up to now is       31.5 secs

     Computing kpt #:    17  of    91
     total cpu time spent up to now is       33.5 secs

     Computing kpt #:    18  of    91
     total cpu time spent up to now is       35.4 secs

     Computing kpt #:    19  of    91
     total cpu time spent up to now is       37.5 secs

     Computing kpt #:    20  of    91
     total cpu time spent up to now is       39.5 secs

     Computing kpt #:    21  of    91
     total cpu time spent up to now is       41.2 secs

     Computing kpt #:    22  of    91
     total cpu time spent up to now is       43.1 secs

     Computing kpt #:    23  of    91
     total cpu time spent up to now is       45.0 secs

     Computing kpt #:    24  of    91
     total cpu time spent up to now is       46.9 secs

     Computing kpt #:    25  of    91
     total cpu time spent up to now is       48.9 secs

     Computing kpt #:    26  of    91
     total cpu time spent up to now is       50.9 secs

     Computing kpt #:    27  of    91
     total cpu time spent up to now is       52.7 secs

     Computing kpt #:    28  of    91
     total cpu time spent up to now is       54.6 secs

     Computing kpt #:    29  of    91
     total cpu time spent up to now is       56.4 secs

     Computing kpt #:    30  of    91
     total cpu time spent up to now is       58.4 secs

     Computing kpt #:    31  of    91
     total cpu time spent up to now is       60.4 secs

     Computing kpt #:    32  of    91
     total cpu time spent up to now is       62.3 secs

     Computing kpt #:    33  of    91
     total cpu time spent up to now is       64.2 secs

     Computing kpt #:    34  of    91
     total cpu time spent up to now is       66.1 secs

     Computing kpt #:    35  of    91
     total cpu time spent up to now is       68.1 secs

     Computing kpt #:    36  of    91
     total cpu time spent up to now is       70.2 secs

     Computing kpt #:    37  of    91
     total cpu time spent up to now is       72.1 secs

     Computing kpt #:    38  of    91
     total cpu time spent up to now is       74.0 secs

     Computing kpt #:    39  of    91
     total cpu time spent up to now is       75.9 secs

     Computing kpt #:    40  of    91
     total cpu time spent up to now is       77.8 secs

     Computing kpt #:    41  of    91
     total cpu time spent up to now is       79.6 secs

     Computing kpt #:    42  of    91
     total cpu time spent up to now is       81.4 secs

     Computing kpt #:    43  of    91
     total cpu time spent up to now is       83.3 secs

     Computing kpt #:    44  of    91
     total cpu time spent up to now is       85.1 secs

     Computing kpt #:    45  of    91
     total cpu time spent up to now is       86.9 secs

     Computing kpt #:    46  of    91
     total cpu time spent up to now is       88.8 secs

     Computing kpt #:    47  of    91
     total cpu time spent up to now is       90.7 secs

     Computing kpt #:    48  of    91
     total cpu time spent up to now is       92.5 secs

     Computing kpt #:    49  of    91
     total cpu time spent up to now is       94.3 secs

     Computing kpt #:    50  of    91
     total cpu time spent up to now is       96.2 secs

     Computing kpt #:    51  of    91
     total cpu time spent up to now is       98.0 secs

     Computing kpt #:    52  of    91
     total cpu time spent up to now is       99.8 secs

     Computing kpt #:    53  of    91
     total cpu time spent up to now is      101.9 secs

     Computing kpt #:    54  of    91
     total cpu time spent up to now is      103.9 secs

     Computing kpt #:    55  of    91
     total cpu time spent up to now is      105.8 secs

     Computing kpt #:    56  of    91
     total cpu time spent up to now is      107.8 secs

     Computing kpt #:    57  of    91
     total cpu time spent up to now is      109.7 secs

     Computing kpt #:    58  of    91
     total cpu time spent up to now is      111.7 secs

     Computing kpt #:    59  of    91
     total cpu time spent up to now is      113.6 secs

     Computing kpt #:    60  of    91
     total cpu time spent up to now is      115.5 secs

     Computing kpt #:    61  of    91
     total cpu time spent up to now is      117.5 secs

     Computing kpt #:    62  of    91
     total cpu time spent up to now is      119.4 secs

     Computing kpt #:    63  of    91
     total cpu time spent up to now is      121.2 secs

     Computing kpt #:    64  of    91
     total cpu time spent up to now is      123.1 secs

     Computing kpt #:    65  of    91
     total cpu time spent up to now is      125.0 secs

     Computing kpt #:    66  of    91
     total cpu time spent up to now is      126.9 secs

     Computing kpt #:    67  of    91
     total cpu time spent up to now is      128.7 secs

     Computing kpt #:    68  of    91
     total cpu time spent up to now is      130.5 secs

     Computing kpt #:    69  of    91
     total cpu time spent up to now is      132.3 secs

     Computing kpt #:    70  of    91
     total cpu time spent up to now is      134.1 secs

     Computing kpt #:    71  of    91
     total cpu time spent up to now is      135.8 secs

     Computing kpt #:    72  of    91
     total cpu time spent up to now is      137.7 secs

     Computing kpt #:    73  of    91
     total cpu time spent up to now is      139.6 secs

     Computing kpt #:    74  of    91
     total cpu time spent up to now is      141.5 secs

     Computing kpt #:    75  of    91
     total cpu time spent up to now is      143.4 secs

     Computing kpt #:    76  of    91
     total cpu time spent up to now is      145.3 secs

     Computing kpt #:    77  of    91
     total cpu time spent up to now is      147.3 secs

     Computing kpt #:    78  of    91
     total cpu time spent up to now is      149.2 secs

     Computing kpt #:    79  of    91
     total cpu time spent up to now is      151.3 secs

     Computing kpt #:    80  of    91
     total cpu time spent up to now is      153.3 secs

     Computing kpt #:    81  of    91
     total cpu time spent up to now is      155.4 secs

     Computing kpt #:    82  of    91
     total cpu time spent up to now is      157.6 secs

     Computing kpt #:    83  of    91
     total cpu time spent up to now is      159.6 secs

     Computing kpt #:    84  of    91
     total cpu time spent up to now is      161.6 secs

     Computing kpt #:    85  of    91
     total cpu time spent up to now is      163.4 secs

     Computing kpt #:    86  of    91
     total cpu time spent up to now is      165.3 secs

     Computing kpt #:    87  of    91
     total cpu time spent up to now is      167.2 secs

     Computing kpt #:    88  of    91
     total cpu time spent up to now is      169.1 secs

     Computing kpt #:    89  of    91
     total cpu time spent up to now is      171.0 secs

     Computing kpt #:    90  of    91
     total cpu time spent up to now is      173.2 secs

     Computing kpt #:    91  of    91
     total cpu time spent up to now is      175.0 secs

     ethr =  1.25E-10,  avg # of iterations = 34.2

     total cpu time spent up to now is      175.0 secs

     End of band structure calculation

          k = 0.5000 0.5000 0.5000 (  2060 PWs)   bands (ev):

    -3.3314  -0.6764   5.1583   5.1583   7.9647   9.7053   9.7053  14.1281
    16.9672  16.9672  17.8153  17.8153  17.8669  19.6087  25.9019  26.5404
    28.1520  28.1520  28.3258  28.3258  32.2405  32.9884  32.9884  34.0803
    34.0803  34.9705  37.8410  38.9746  38.9746  39.5110

          k = 0.4750 0.4750 0.4750 (  2078 PWs)   bands (ev):

    -3.3678  -0.6243   5.1628   5.1628   7.9699   9.7108   9.7108  14.1365
    16.7212  16.7212  17.7375  18.0800  18.0800  19.7308  25.3867  27.0811
    27.6021  27.6021  28.8362  28.8362  32.0469  33.0192  33.0192  34.0967
    34.0967  35.1305  37.8221  38.9756  38.9756  39.5444

          k = 0.4500 0.4500 0.4500 (  2084 PWs)   bands (ev):

    -3.4692  -0.4761   5.1764   5.1764   7.9853   9.7268   9.7268  14.1609
    16.2880  16.2880  17.4258  18.5690  18.5690  20.0153  24.6845  26.9559
    26.9559  27.8655  29.3584  29.3584  31.5723  33.1078  33.1078  34.1562
    34.1562  35.4961  37.7673  38.9844  38.9844  39.6382

          k = 0.4250 0.4250 0.4250 (  2078 PWs)   bands (ev):

    -3.6173  -0.2499   5.1990   5.1990   8.0110   9.7521   9.7521  14.1994
    15.8380  15.8380  17.0347  19.1108  19.1108  20.3377  24.0299  26.3051
    26.3051  28.6787  29.7896  29.7896  30.9683  33.2330  33.2330  34.2940
    34.2940  35.8943  37.6811  39.0114  39.0114  39.7791

          k = 0.4000 0.4000 0.4000 (  2078 PWs)   bands (ev):

    -3.7936   0.0353   5.2305   5.2305   8.0467   9.7849   9.7849  14.2474
    15.4027  15.4027  16.6180  19.6712  19.6712  20.5918  23.4968  25.6654
    25.6654  29.4801  30.1109  30.1109  30.3367  33.3483  33.3483  34.5658
    34.5658  36.2161  37.5700  39.0642  39.0642  39.9546

          k = 0.3750 0.3750 0.3750 (  2072 PWs)   bands (ev):

    -3.9837   0.3650   5.2710   5.2710   8.0924   9.8222   9.8222  14.2953
    14.9932  14.9932  16.2051  20.2322  20.2322  20.6493  23.1974  25.0530
    25.0530  29.5524  30.3242  30.3242  30.4255  33.4152  33.4152  35.0029
    35.0029  36.4092  37.4411  39.1461  39.1461  40.1542

          k = 0.3500 0.3500 0.3500 (  2093 PWs)   bands (ev):

    -4.1777   0.7289   5.3204   5.3204   8.1477   9.8597   9.8597  14.3218
    14.6165  14.6165  15.8253  20.4208  20.7691  20.7691  23.2132  24.4936
    24.4936  28.9069  30.4484  30.4484  31.2382  33.4341  33.4341  35.5822
    35.5822  36.4677  37.3008  39.2577  39.2577  40.3673

          k = 0.3250 0.3250 0.3250 (  2090 PWs)   bands (ev):

    -4.3692   1.1200   5.3784   5.3784   8.2123   9.8922   9.8922  14.2796
    14.2796  14.2811  15.5269  19.9761  21.2281  21.2281  23.4688  24.0425
    24.0425  28.2537  30.5078  30.5078  32.0731  33.4210  33.4210  36.2602
    36.2602  36.4166  37.1550  39.3981  39.3981  40.5806

          k = 0.3000 0.3000 0.3000 (  2081 PWs)   bands (ev):

    -4.5539   1.5333   5.4449   5.4449   8.2855   9.9130   9.9130  13.9898
    13.9898  14.1112  15.3710  19.4351  21.4910  21.4910  23.8188  23.8188
    23.8360  27.6305  30.5234  30.5234  32.8980  33.3880  33.3880  36.2932
    36.9972  36.9972  37.0084  39.5658  39.5658  40.7756

          k = 0.2750 0.2750 0.2750 (  2072 PWs)   bands (ev):

    -4.7288   1.9652   5.5193   5.5193   8.3666   9.9148   9.9148  13.7545
    13.7545  13.8072  15.3589  18.8705  21.4304  21.4304  23.9502  23.9502
    24.2228  27.0681  30.5110  30.5110  33.3424  33.3424  33.6858  36.1436
    36.8646  37.7568  37.7568  39.7603  39.7603  40.9255

          k = 0.2500 0.2500 0.2500 (  2085 PWs)   bands (ev):

    -4.8921   2.4126   5.6012   5.6012   8.4545   9.8908   9.8908  13.4236
    13.5807  13.5807  15.4281  18.3226  21.1099  21.1099  24.3739  24.3739
    24.5347  26.6334  30.4818  30.4818  33.2888  33.2888  34.3619  36.0567
    36.7269  38.4899  38.4899  39.9818  39.9818  41.0030

          k = 0.2250 0.2250 0.2250 (  2085 PWs)   bands (ev):

    -5.0423   2.8724   5.6897   5.6897   8.5477   9.8363   9.8363  13.0021
    13.4725  13.4725  15.5212  17.8229  20.6750  20.6750  24.6191  24.9438
    24.9439  26.4663  30.4436  30.4436  33.2298  33.2298  34.7230  36.2433
    36.5974  39.1010  39.1010  40.2065  40.2065  41.0470

          k = 0.2000 0.2000 0.2000 (  2079 PWs)   bands (ev):

    -5.1785   3.3419   5.7836   5.7836   8.6441   9.7511   9.7511  12.5626
    13.4297  13.4297  15.5882  17.4117  20.2054  20.2054  24.3963  25.5801
    25.5801  26.6405  30.4024  30.4024  33.1669  33.1669  34.6762  36.4780
    36.7998  39.4050  39.4050  40.3175  40.3175  41.3151

          k = 0.1750 0.1750 0.1750 (  2088 PWs)   bands (ev):

    -5.2999   3.8173   5.8812   5.8812   8.7409   9.6396   9.6396  12.1150
    13.4468  13.4468  15.5696  17.1455  19.7357  19.7357  24.0024  26.2467
    26.2467  27.0165  30.3628  30.3628  33.1003  33.1003  34.4327  36.3701
    37.5145  39.2261  39.2261  40.4126  40.4126  41.9003

          k = 0.1500 0.1500 0.1500 (  2082 PWs)   bands (ev):

    -5.4059   4.2943   5.9804   5.9804   8.8339   9.5099   9.5099  11.6669
    13.5142  13.5142  15.4264  17.0622  19.2837  19.2837  23.5616  26.9231
    26.9231  27.4686  30.3294  30.3294  33.0290  33.0290  34.1165  36.2748
    38.2602  38.7220  38.7220  40.5785  40.5785  42.5961

          k = 0.1250 0.1250 0.1250 (  2088 PWs)   bands (ev):

    -5.4962   4.7662   6.0779   6.0779   8.9174   9.3724   9.3724  11.2272
    13.6188  13.6188  15.1954  17.1237  18.8619  18.8619  23.1282  27.5915
    27.5915  27.9415  30.3073  30.3073  32.9505  32.9505  33.7695  36.1930
    38.1061  38.1061  38.9890  40.7505  40.7505  43.2757

          k = 0.1000 0.1000 0.1000 (  2079 PWs)   bands (ev):

    -5.5704   5.2230   6.1699   6.1699   8.9827   9.2384   9.2384  10.8098
    13.7456  13.7456  14.9448  17.2584  18.4821  18.4821  22.7293  28.2291
    28.2291  28.4066  30.3046  30.3046  32.8602  32.8602  33.4132  36.1252
    37.4784  37.4784  39.6710  40.9047  40.9047  43.8717

          k = 0.0750 0.0750 0.0750 (  2091 PWs)   bands (ev):

    -5.6284   5.6485   6.2510   6.2510   9.0177   9.1186   9.1186  10.4384
    13.8773  13.8773  14.7204  17.4136  18.1577  18.1577  22.3856  28.7987
    28.7987  28.8399  30.3363  30.3363  32.7528  32.7528  33.0675  36.0721
    36.9004  36.9004  40.2757  41.0319  41.0319  44.3495

          k = 0.0500 0.0500 0.0500 (  2085 PWs)   bands (ev):

    -5.6699   6.0145   6.3155   6.3155   9.0099   9.0236   9.0236  10.1485
    13.9945  13.9945  14.5470  17.5538  17.9052  17.9052  22.1170  29.2105
    29.2396  29.2396  30.4248  30.4248  32.6283  32.6283  32.7609  36.0339
    36.4272  36.4272  40.7646  41.1269  41.1269  44.6982

          k = 0.0250 0.0250 0.0250 (  2085 PWs)   bands (ev):

    -5.6948   6.2749   6.3573   6.3573   8.9623   8.9623   8.9675   9.9734
    14.0765  14.0765  14.4382  17.6515  17.7429  17.7429  21.9443  29.4724
    29.4936  29.4936  30.5604  30.5604  32.5086  32.5086  32.5379  36.0109
    36.1135  36.1135  41.0900  41.1855  41.1855  44.9128

          k = 0.0000 0.0000 0.0000 (  2085 PWs)   bands (ev):

    -5.7031   6.3719   6.3719   6.3719   8.9411   8.9411   8.9411   9.9177
    14.1062  14.1062  14.4012  17.6866  17.6866  17.6866  21.8844  29.5695
    29.5695  29.5695  30.6344  30.6344  32.4539  32.4539  32.4539  36.0032
    36.0032  36.0032  41.2053  41.2053  41.2053  44.9858

          k = 0.0333 0.0000 0.0000 (  2085 PWs)   bands (ev):

    -5.6982   6.3393   6.3502   6.3502   8.9288   8.9688   8.9688   9.9497
    14.0654  14.1116  14.4232  17.6951  17.6951  17.7152  21.9202  29.4953
    29.4953  29.5757  30.5733  30.5972  32.4765  32.5020  32.5020  36.0396
    36.0396  36.0666  41.1738  41.1746  41.1746  44.9109

          k = 0.0667 0.0000 0.0000 (  2085 PWs)   bands (ev):

    -5.6834   6.2450   6.2880   6.2880   8.8925   9.0492   9.0492  10.0413
    13.9494  14.1279  14.4885  17.7207  17.7207  17.7961  22.0270  29.2895
    29.2895  29.5943  30.3983  30.4915  32.5387  32.6294  32.6294  36.1491
    36.1491  36.2483  41.0811  41.0831  41.0831  44.6944

          k = 0.1000 0.0000 0.0000 (  2089 PWs)   bands (ev):

    -5.6588   6.0979   6.1922   6.1922   8.8343   9.1753   9.1753  10.1815
    13.7746  14.1552  14.5952  17.7633  17.7633  17.9167  22.2027  28.9878
    28.9878  29.6256  30.1298  30.3304  32.6273  32.8004  32.8004  36.3314
    36.3314  36.5272  40.9314  40.9325  40.9325  44.3570

          k = 0.1333 0.0000 0.0000 (  2089 PWs)   bands (ev):

    -5.6243   5.9093   6.0712   6.0712   8.7567   9.3386   9.3386  10.3548
    13.5623  14.1933  14.7404  17.8228  17.8228  18.0632  22.4438  28.6235
    28.6235  29.6699  29.7915  30.1276  32.7286  32.9832  32.9832  36.5845
    36.5845  36.8785  40.7256  40.7256  40.7295  43.9238

          k = 0.1667 0.0000 0.0000 (  2081 PWs)   bands (ev):

    -5.5800   5.6892   5.9329   5.9329   8.6632   9.5311   9.5311  10.5428
    13.3363  14.2423  14.9206  17.8993  17.8993  18.2245  22.7452  28.2203
    28.2203  29.4040  29.7277  29.8943  32.8317  33.1585  33.1585  36.9035
    36.9035  37.2797  40.4658  40.4658  40.4800  43.4182

          k = 0.2000 0.0000 0.0000 (  2073 PWs)   bands (ev):

    -5.5259   5.4460   5.7837   5.7837   8.5573   9.7464   9.7464  10.7222
    13.1238  14.3022  15.1321  17.9924  17.9924  18.3936  23.1007  27.7936
    27.7936  28.9832  29.6382  29.7997  32.9287  33.3175  33.3175  37.2804
    37.2804  37.7126  40.1576  40.1576  40.1856  42.8591

          k = 0.2333 0.0000 0.0000 (  2077 PWs)   bands (ev):

    -5.4621   5.1861   5.6285   5.6285   8.4421   9.9793   9.9793  10.8619
    12.9592  14.3730  15.3715  18.1020  18.1020  18.5670  23.5029  27.3535
    27.3535  28.5404  29.3652  29.8870  33.0139  33.4582  33.4582  37.7047
    37.7047  38.1627  39.8069  39.8069  39.8485  42.2613

          k = 0.2667 0.0000 0.0000 (  2081 PWs)   bands (ev):

    -5.3885   4.9140   5.4708   5.4708   8.3210  10.2264  10.2264  10.9231
    12.8836  14.4546  15.6351  18.2277  18.2277  18.7440  23.9443  26.9069
    26.9069  28.0838  29.0794  29.9908  33.0826  33.5820  33.5820  38.1616
    38.1616  38.6181  39.4244  39.4244  39.4705  41.6355

          k = 0.3000 0.0000 0.0000 (  2085 PWs)   bands (ev):

    -5.3053   4.6329   5.3131   5.3131   8.1964  10.4846  10.4846  10.8786
    12.9258  14.5471  15.9200  18.3690  18.3690  18.9250  24.4170  26.4588
    26.4588  27.6191  28.7841  30.1130  33.1311  33.6907  33.6907  38.5878
    38.5878  39.0546  39.0684  39.0700  39.0700  40.9900

          k = 0.3333 0.0000 0.0000 (  2061 PWs)   bands (ev):

    -5.2124   4.3452   5.1576   5.1576   8.0708  10.7368  10.7521  10.7521
    13.0790  14.6504  16.2231  18.5251  18.5251  19.1114  24.9133  26.0131
    26.0131  27.1504  28.4822  30.2560  33.1558  33.7857  33.7857  38.4491
    38.4491  38.6059  39.2770  39.2770  39.5041  40.3310

          k = 0.3667 0.0000 0.0000 (  2073 PWs)   bands (ev):

    -5.1100   4.0526   5.0055   5.0055   7.9462  10.5295  11.0271  11.0271
    13.3121  14.7646  16.5419  18.6950  18.6950  19.3048  25.4253  25.5731
    25.5731  26.6807  28.1762  30.4228  33.1528  33.8666  33.8666  37.9995
    37.9995  38.1314  39.6632  39.7924  39.7924  39.9163

          k = 0.4000 0.0000 0.0000 (  2073 PWs)   bands (ev):

    -4.9981   3.7564   4.8581   4.8581   7.8242  10.2866  11.3085  11.3085
    13.5958  14.8896  16.8736  18.8768  18.8768  19.5068  25.1423  25.1423
    25.9450  26.2124  27.8684  30.6175  33.1180  33.9302  33.9302  37.5181
    37.5181  37.6402  38.9905  40.2971  40.3407  40.3407

          k = 0.4333 0.0000 0.0000 (  2069 PWs)   bands (ev):

    -4.8768   3.4576   4.7161   4.7161   7.7063  10.0277  11.5953  11.5953
    13.9108  15.0254  17.2157  19.0682  19.0682  19.7188  24.7242  24.7242
    25.7470  26.4637  27.5613  30.8453  33.0468  33.9692  33.9692  37.0347
    37.0347  37.1426  38.3160  40.6397  40.8990  40.8990

          k = 0.4667 0.0000 0.0000 (  2069 PWs)   bands (ev):

    -4.7462   3.1569   4.5801   4.5801   7.5937   9.7642  11.8867  11.8867
    14.2458  15.1720  17.5655  19.2651  19.2651  19.9424  24.3238  24.3238
    25.2859  26.9724  27.2574  31.1118  32.9336  33.9690  33.9690  36.5720
    36.5720  36.6498  37.6426  40.9396  41.4566  41.4566

          k = 0.5000 0.0000 0.0000 (  2085 PWs)   bands (ev):

    -4.6063   2.8550   4.4509   4.4509   7.4874   9.5032  12.1821  12.1821
    14.5937  15.3294  17.9199  19.4618  19.4618  20.1785  23.9476  23.9476
    24.8302  26.9595  27.4616  31.4231  32.7725  33.9037  33.9037  36.1611
    36.1611  36.1730  36.9731  41.1946  41.8904  41.9988

          k = 0.5333 0.0000 0.0000 (  2061 PWs)   bands (ev):

    -4.4573   2.5523   4.3286   4.3286   7.3882   9.2489  12.4811  12.4811
    14.9497  15.4976  18.2754  19.6488  19.6488  20.4284  23.6054  23.6054
    24.3806  26.6710  27.9229  31.7842  32.5577  33.7385  33.7385  35.7229
    35.8410  35.8410  36.3109  41.4056  41.8071  42.4898

          k = 0.5667 0.0000 0.0000 (  2061 PWs)   bands (ev):

    -4.2993   2.2494   4.2138   4.2138   7.2969   9.0041  12.7833  12.7833
    15.3106  15.6764  18.6277  19.8119  19.8119  20.6928  23.3118  23.3118
    23.9379  26.3958  28.3497  32.1957  32.2855  33.4493  33.4493  35.3081
    35.6392  35.6392  35.6612  41.5759  41.7570  42.8096

          k = 0.6000 0.0000 0.0000 (  2072 PWs)   bands (ev):

    -4.1324   1.9467   4.1066   4.1066   7.2142   8.7707  13.0885  13.0885
    15.6739  15.8660  18.9714  19.9305  19.9305  20.9726  23.0874  23.0874
    23.5024  26.1390  28.7390  31.9556  32.6479  33.0475  33.0475  34.9328
    35.0365  35.5466  35.5466  41.7103  41.7368  42.8004

          k = 0.6333 0.0000 0.0000 (  2080 PWs)   bands (ev):

    -3.9568   1.6448   4.0074   4.0074   7.1406   8.5498  13.3963  13.3963
    16.0375  16.0663  19.2997  19.9797  19.9797  21.2684  22.9571  22.9571
    23.0749  25.9067  29.0914  31.5732  32.5680  32.5680  33.0905  34.4861
    34.5963  35.5307  35.5307  41.7430  41.8147  42.6096

          k = 0.6667 0.0000 0.0000 (  2080 PWs)   bands (ev):

    -3.7726   1.3440   3.9162   3.9162   7.0766   8.3424  13.7067  13.7067
    16.2773  16.3998  19.6040  19.9402  19.9402  21.5804  22.6555  22.9402
    22.9402  25.7069  29.4102  31.1476  32.0424  32.0424  33.2463  34.2837
    34.2934  35.5609  35.5609  41.7719  41.8948  42.3776

          k = 0.7000 0.0000 0.0000 (  2080 PWs)   bands (ev):

    -3.5799   1.0448   3.8334   3.8334   7.0227   8.1489  14.0194  14.0194
    16.4988  16.7593  19.8099  19.8099  19.8738  21.9089  22.2446  23.0386
    23.0386  25.5487  29.6997  30.6906  31.4915  31.4915  32.8528  34.0167
    34.6868  35.6176  35.6176  41.8189  41.9562  42.1434

          k = 0.7333 0.0000 0.0000 (  2084 PWs)   bands (ev):

    -3.3789   0.7477   3.7589   3.7589   6.9793   7.9696  14.3344  14.3344
    16.7310  17.1146  19.6046  19.6046  20.0970  21.8425  22.2537  23.2362
    23.2362  25.4424  29.9628  30.2144  30.9278  30.9278  32.3030  33.7590
    35.2990  35.6885  35.6885  41.8786  41.9196  41.9196

          k = 0.7667 0.0000 0.0000 (  2088 PWs)   bands (ev):

    -3.1699   0.4531   3.6930   3.6930   6.9467   7.8048  14.6513  14.6513
    16.9738  17.4643  19.3467  19.3467  20.2615  21.4494  22.6143  23.5104
    23.5104  25.3969  29.7306  30.1963  30.3593  30.3593  31.7437  33.5143
    35.7657  35.7657  35.9763  41.7115  41.7115  41.9436

          k = 0.8000 0.0000 0.0000 (  2092 PWs)   bands (ev):

    -2.9530   0.1616   3.6356   3.6356   6.9254   7.6545  14.9698  14.9698
    17.2270  17.8072  19.0556  19.0556  20.3577  21.0656  22.9898  23.8416
    23.8416  25.4161  29.2517  29.7911  29.7911  30.3670  31.2388  33.2782
    35.8438  35.8438  36.6868  41.5229  41.5229  42.0035

          k = 0.8333 0.0000 0.0000 (  2100 PWs)   bands (ev):

    -2.7285  -0.1266   3.5870   3.5870   6.9157   7.5187  15.2892  15.2892
    17.4908  18.1420  18.7453  18.7453  20.3816  20.6911  23.3786  24.2158
    24.2158  25.4945  28.7929  29.2271  29.2271  30.2857  30.9904  33.0476
    35.9181  35.9181  37.4166  41.3568  41.3568  42.0431

          k = 0.8667 0.0000 0.0000 (  2088 PWs)   bands (ev):

    -2.4966  -0.4108   3.5471   3.5471   6.9178   7.3972  15.6080  15.6080
    17.7649  18.4259  18.4259  18.4671  20.3262  20.3353  23.7780  24.6230
    24.6230  25.6099  28.3775  28.6703  28.6703  29.8689  31.0908  32.8206
    35.9850  35.9850  38.1550  41.2158  41.2158  42.0386

          k = 0.9000 0.0000 0.0000 (  2080 PWs)   bands (ev):

    -2.2576  -0.6908   3.5161   3.5161   6.9322   7.2899  15.9229  15.9229
    18.0495  18.1063  18.1063  18.7808  19.9711  20.2266  24.1839  25.0561
    25.0561  25.7159  28.0476  28.1239  28.1239  29.3824  31.2831  32.5959
    36.0410  36.0410  38.8906  41.1027  41.1027  41.9554

          k = 0.9333 0.0000 0.0000 (  2080 PWs)   bands (ev):

    -2.0117  -0.9660   3.4939   3.4939   6.9590   7.1966  16.2256  16.2256
    17.7982  17.7982  18.3444  19.0808  19.6257  20.0657  24.5893  25.5077
    25.5077  25.7367  27.5928  27.5928  27.8706  28.9101  31.4941  32.3728
    36.0834  36.0834  39.6088  41.0199  41.0199  41.7516

          k = 0.9667 0.0000 0.0000 (  2084 PWs)   bands (ev):

    -1.7592  -1.2360   3.4805   3.4805   6.9986   7.1171  16.4887  16.4887
    17.5312  17.5312  18.6495  19.2902  19.3640  19.8626  24.9812  25.6063
    25.9618  25.9618  27.0915  27.0915  27.9040  28.4816  31.7110  32.1510
    36.1098  36.1098  40.2882  40.9694  40.9694  41.3973

          k = 1.0000 0.0000 0.0000 (  2100 PWs)   bands (ev):

    -1.5006  -1.5006   3.4761   3.4761   7.0512   7.0512  16.6145  16.6145
    17.4039  17.4039  18.9648  18.9648  19.6264  19.6264  25.3352  25.3352
    26.2701  26.2701  26.7675  26.7675  28.1292  28.1292  31.9303  31.9303
    36.1187  36.1187  40.8978  40.8978  40.9524  40.9524

          k = 1.0000 0.0250 0.0250 (  2088 PWs)   bands (ev):

    -1.5027  -1.4946   3.4376   3.4805   7.0564   7.1078  16.5495  16.5818
    17.3233  17.3346  19.0329  19.0337  19.6578  19.7162  25.2208  25.2806
    26.2569  26.2896  26.7799  26.8792  28.1454  28.2069  31.8384  31.9168
    36.1189  36.2004  40.3981  40.9057  40.9547  41.4033

          k = 1.0000 0.0500 0.0500 (  2080 PWs)   bands (ev):

    -1.5095  -1.4767   3.3300   3.4939   7.0718   7.2701  16.3738  16.4878
    17.1121  17.1548  19.2089  19.2211  19.7478  19.9551  24.9485  25.1235
    26.2332  26.3479  26.8172  27.1405  28.1937  28.4163  31.5888  31.8770
    36.1193  36.4215  39.8467  40.9297  40.9549  41.6275

          k = 1.0000 0.0750 0.0750 (  2076 PWs)   bands (ev):

    -1.5217  -1.4468   3.1714   3.5161   7.0975   7.5206  16.1253  16.3429
    16.8245  16.9120  19.4453  19.4888  19.8861  20.2883  24.6091  24.8857
    26.2213  26.4452  26.8796  27.4503  28.2718  28.7100  31.2419  31.8131
    36.1199  36.7295  39.2902  40.8337  40.9701  41.1513

          k = 1.0000 0.1000 0.1000 (  2084 PWs)   bands (ev):

    -1.5407  -1.4050   2.9829   3.5471   7.1334   7.8395  15.8353  16.1594
    16.4990  16.6380  19.7103  19.8047  20.0603  20.6765  24.2451  24.5962
    26.2275  26.5812  26.9676  27.7458  28.3708  29.0452  30.8722  31.7307
    36.1203  37.0716  38.7453  40.2235  41.0276  41.0875

          k = 1.0000 0.1250 0.1250 (  2089 PWs)   bands (ev):

    -1.5682  -1.3512   2.7825   3.5868   7.1793   8.2104  15.5235  15.9484
    16.1569  16.3496  19.9872  20.1487  20.2590  21.0969  23.8742  24.2794
    26.2494  26.7558  27.0818  27.9674  28.4697  29.3845  30.5742  31.6442
    36.1204  37.4038  38.2251  39.4817  41.1032  41.1216

          k = 1.0000 0.1500 0.1500 (  2091 PWs)   bands (ev):

    -1.6065  -1.2856   2.5844   3.6351   7.2352   8.6209  15.2011  15.7189
    15.8094  16.0558  20.2672  20.4730  20.5082  21.5347  23.5051  23.9530
    26.2833  26.9683  27.2228  28.0041  28.5779  29.6818  30.4621  31.5862
    36.1196  37.6872  37.7392  38.7094  41.1752  41.1980

          k = 1.0000 0.1750 0.1750 (  2097 PWs)   bands (ev):

    -1.6580  -1.2081   2.3993   3.6917   7.3009   9.0624  14.8751  15.4627
    15.4776  15.7619  20.5453  20.6945  20.8756  21.9748  23.1430  23.6345
    26.3256  27.2180  27.3914  27.7585  28.7513  29.8695  30.5852  31.6172
    36.1176  37.2945  37.8831  37.9259  41.2419  41.3131

          k = 1.0000 0.2000 0.2000 (  2097 PWs)   bands (ev):

    -1.7252  -1.1187   2.2355   3.7566   7.3761   9.5285  14.5496  15.1209
    15.2295  15.4713  20.8190  20.9161  21.2456  22.3788  22.7932  23.3626
    26.3730  27.3138  27.5034  27.5882  28.9741  29.8875  30.8821  31.7961
    36.1140  36.8952  37.1409  37.9507  41.3200  41.4473

          k = 1.0000 0.2250 0.2250 (  2089 PWs)   bands (ev):

    -1.8099  -1.0176   2.0988   3.8293   7.4606  10.0141  14.2273  14.7866
    14.9783  15.1865  21.0868  21.1269  21.6144  22.4647  22.5747  23.3081
    26.4212  26.7684  27.8138  27.8225  29.2272  29.7485  31.2769  32.1141
    36.1084  36.3607  36.5426  37.8560  41.4088  41.4170

          k = 1.0000 0.2500 0.2500 (  2097 PWs)   bands (ev):

    -1.9135  -0.9046   1.9933   3.9097   7.5541  10.5151  13.9100  14.4623
    14.7270  14.9092  21.3001  21.3480  21.9792  22.1828  22.4113  23.6191
    26.1735  26.4640  28.0684  28.1725  29.5054  29.5148  31.7259  32.5188
    35.5903  36.1003  36.2362  37.5893  41.2954  41.5079

          k = 0.9667 0.2417 0.2417 (  2094 PWs)   bands (ev):

    -1.9177  -0.9061   2.0392   3.8861   7.5279  10.3524  13.9320  14.3443
    15.0342  15.0927  21.0558  21.1947  21.8841  22.0623  22.8782  23.5316
    26.2343  26.5382  27.5840  28.4677  29.4043  29.6860  31.3792  32.5919
    35.8490  36.1004  36.2932  37.7239  41.2724  41.4143

          k = 0.9333 0.2333 0.2333 (  2101 PWs)   bands (ev):

    -2.0055  -0.8283   2.1142   3.8716   7.5143  10.2031  13.8407  14.1285
    15.4082  15.4370  20.6033  20.9809  21.5118  22.3016  23.2640  23.6812
    26.1137  26.6777  27.0675  28.8395  29.4447  29.8699  30.9082  32.8599
    36.0530  36.1562  36.2716  37.8919  40.8652  41.2061

          k = 0.9000 0.2250 0.2250 (  2105 PWs)   bands (ev):

    -2.1542  -0.6897   2.2139   3.8663   7.5132  10.0680  13.7038  13.9051
    15.7868  15.8428  20.1284  20.6756  21.1721  22.5582  23.2804  24.2169
    25.9612  26.5714  26.7506  29.2372  29.6104  29.9963  30.5430  33.1790
    36.0456  36.1694  36.4232  38.0812  40.2519  41.1555

          k = 0.8667 0.2167 0.2167 (  2099 PWs)   bands (ev):

    -2.3374  -0.5130   2.3343   3.8703   7.5242   9.9481  13.5512  13.6805
    16.1971  16.2405  19.6547  20.3011  20.8769  22.8057  23.1981  24.8012
    25.8384  26.1032  26.7476  29.6578  29.6982  30.0094  30.5533  33.5206
    35.9837  36.0100  36.7178  38.2758  39.6628  41.1302

          k = 0.8333 0.2083 0.2083 (  2101 PWs)   bands (ev):

    -2.5384  -0.3123   2.4722   3.8837   7.5467   9.8444  13.3939  13.4565
    16.6214  16.6257  19.1897  19.8848  20.6251  23.0292  23.0472  25.2743
    25.6748  25.8395  26.7047  29.4323  30.0981  30.3161  30.7936  33.8751
    35.7093  35.9627  37.0238  38.4473  39.1571  41.1313

          k = 0.8000 0.2000 0.2000 (  2103 PWs)   bands (ev):

    -2.7475  -0.0949   2.6247   3.9066   7.5797   9.7584  13.2336  13.2360
    16.9734  17.0643  18.7384  19.4466  20.4191  22.8260  23.2072  25.3087
    25.4109  26.0452  26.7732  29.1788  30.5549  30.6724  31.1238  34.2347
    35.3475  35.9069  37.3391  38.4556  38.8905  41.1576

          k = 0.7667 0.1917 0.1917 (  2094 PWs)   bands (ev):

    -2.9591   0.1354   2.7895   3.9390   7.6220   9.6914  13.0121  13.0791
    17.2789  17.4975  18.3140  18.9980  20.2699  22.5457  23.3011  25.0459
    25.3422  26.0991  27.1729  29.0086  30.9904  31.0242  31.5445  34.5599
    34.9448  35.8458  37.6623  38.1892  38.9755  41.2064

          k = 0.7333 0.1833 0.1833 (  2092 PWs)   bands (ev):

    -3.1698   0.3765   2.9646   3.9809   7.6723   9.6454  12.7922  12.9231
    17.5137  17.7308  18.1088  18.5471  20.1918  22.2278  23.2655  24.9359
    25.1460  26.0973  27.6965  28.9558  31.2561  31.5012  32.0370  34.3349
    35.0404  35.7839  37.9169  37.9914  39.1316  41.2734

          k = 0.7000 0.1750 0.1750 (  2090 PWs)   bands (ev):

    -3.3770   0.6269   3.1479   4.0323   7.7285   9.6223  12.5741  12.7676
    17.4024  17.6434  18.1119  18.4803  20.1903  21.9001  23.1010  24.8438
    24.9835  26.1586  28.0938  29.1210  31.4726  31.9793  32.5616  33.8377
    35.4003  35.7273  37.6924  38.3239  39.2891  41.3529

          k = 0.6667 0.1667 0.1667 (  2082 PWs)   bands (ev):

    -3.5793   0.8860   3.3379   4.0932   7.7886   9.6241  12.3581  12.6113
    17.0197  17.5201  17.8371  18.9143  20.2358  21.6059  22.8672  24.4873
    25.1390  26.2720  28.2371  29.5803  31.6185  32.4488  32.9784  33.4973
    35.6847  35.7666  37.5131  38.6559  39.4400  41.4364

          k = 0.6333 0.1583 0.1583 (  2083 PWs)   bands (ev):

    -3.7753   1.1532   3.5330   4.1634   7.8506   9.6527  12.1444  12.4528
    16.6495  17.1100  17.7723  19.3297  20.2355  21.4248  22.6289  24.1197
    25.3540  26.4151  28.2402  30.1889  31.6191  32.8392  32.8954  33.8658
    35.6699  36.1123  37.3820  38.9810  39.5856  41.5114

          k = 0.6000 0.1500 0.1500 (  2083 PWs)   bands (ev):

    -3.9641   1.4280   3.7316   4.2428   7.9125   9.7093  11.9337  12.2903
    16.2996  16.6616  17.6939  19.6915  20.0829  21.4287  22.4423  23.7784
    25.6018  26.5718  28.1882  30.8320  31.3868  32.7459  33.2970  34.4551
    35.7039  36.3921  37.3330  39.2878  39.7292  41.5587

          k = 0.5667 0.1417 0.1417 (  2084 PWs)   bands (ev):

    -4.1450   1.7100   3.9324   4.3314   7.9731   9.7939  11.7267  12.1218
    15.9736  16.2101  17.5882  19.7992  19.9506  21.5419  22.3686  23.5129
    25.8696  26.7268  28.1001  31.0022  31.4554  32.8418  33.6236  35.0760
    35.8147  36.5241  37.4428  39.5554  39.8734  41.5532

          k = 0.5333 0.1333 0.1333 (  2083 PWs)   bands (ev):

    -4.3174   1.9990   4.1341   4.4289   8.0321   9.9048  11.5251  11.9455
    15.6741  15.7617  17.4635  19.4608  20.0574  21.6080  22.4632  23.3999
    26.1511  26.8543  27.9852  30.6087  31.9893  33.0747  33.8490  35.7020
    36.0268  36.5105  37.7159  39.7445  40.0173  41.4881

          k = 0.5000 0.1250 0.1250 (  2083 PWs)   bands (ev):

    -4.4809   2.2945   4.3354   4.5351   8.0897  10.0375  11.3316  11.7597
    15.3194  15.4030  17.3237  19.1123  20.0106  21.5224  22.7307  23.5006
    26.4427  26.8974  27.8829  30.2740  32.3611  33.4562  33.9701  36.2202
    36.3406  36.5478  38.0689  39.7971  40.1516  41.4111

          k = 0.4667 0.1167 0.1167 (  2069 PWs)   bands (ev):

    -4.6351   2.5961   4.5352   4.6497   8.1467  10.1823  11.1532  11.5633
    14.8859  15.1616  17.1678  18.7780  19.8591  21.3000  23.1239  23.7799
    26.7425  26.7692  27.8749  30.0238  32.5784  33.9330  34.0088  36.2563
    36.7310  37.0754  38.4539  39.6787  40.2512  41.3572

          k = 0.4333 0.1083 0.1083 (  2072 PWs)   bands (ev):

    -4.7797   2.9035   4.7322   4.7722   8.2045  10.3158  11.0087  11.3561
    14.4649  14.9506  16.9905  18.4758  19.6533  21.0060  23.5931  24.1615
    26.4621  27.0490  27.9816  29.8551  32.7094  33.9927  34.3703  36.2617
    37.1665  37.7069  38.8555  39.4239  40.2667  41.2637

          k = 0.4000 0.1000 0.1000 (  2076 PWs)   bands (ev):

    -4.9143   3.2159   4.9022   4.9252   8.2641  10.3806  10.9484  11.1385
    14.0623  14.7695  16.7853  18.2197  19.4246  20.6828  24.1072  24.5922
    26.0524  27.3613  28.1533  29.7506  32.7953  33.9421  34.6288  36.4368
    37.6213  38.3253  39.0938  39.2714  40.1418  41.0576

          k = 0.3667 0.0917 0.0917 (  2070 PWs)   bands (ev):

    -5.0388   3.5326   5.0391   5.1131   8.3265  10.3240  10.9120  11.0141
    13.6877  14.6170  16.5496  18.0177  19.1902  20.3509  24.6485  25.0130
    25.6312  27.6783  28.3549  29.6917  32.8531  33.8691  34.6590  36.8219
    38.0724  38.7359  38.8888  39.6473  39.9426  40.7318

          k = 0.3333 0.0833 0.0833 (  2068 PWs)   bands (ev):

    -5.1530   3.8528   5.1820   5.2947   8.3921  10.1930  10.6789  11.1393
    13.3594  14.4910  16.2882  17.8690  18.9603  20.0197  24.9778  25.2063
    25.6646  27.9988  28.5700  29.6645  32.8901  33.7802  34.5376  37.3333
    38.2930  38.5872  39.2546  39.5207  40.3126  40.3134

          k = 0.3000 0.0750 0.0750 (  2072 PWs)   bands (ev):

    -5.2568   4.1749   5.3298   5.4685   8.4609  10.0382  10.4422  11.2396
    13.1100  14.3892  16.0118  17.7660  18.7406  19.6940  24.5289  25.7732
    26.1219  28.3216  28.7895  29.6607  32.9095  33.6783  34.3414  37.8893
    37.9520  38.9072  38.9751  39.8140  39.8369  40.8928

          k = 0.2667 0.0667 0.0667 (  2076 PWs)   bands (ev):

    -5.3499   4.4974   5.4811   5.6331   8.5324   9.8783  10.2053  11.2497
    12.9850  14.3085  15.7326  17.6993  18.5353  19.3767  24.0605  26.3427
    26.6168  28.6450  29.0045  29.6779  32.9121  33.5645  34.1090  37.5940
    38.3981  38.4890  39.1637  39.5237  40.1264  41.5157

          k = 0.2333 0.0583 0.0583 (  2079 PWs)   bands (ev):

    -5.4324   4.8176   5.6340   5.7869   8.6052   9.7204   9.9720  11.1390
    13.0072  14.2460  15.4615  17.6605  18.3475  19.0699  23.6113  26.9084
    27.1158  28.9669  29.2017  29.7220  32.8971  33.4380  33.8589  37.2546
    37.9597  38.6879  38.9946  39.8261  40.3900  42.1468

          k = 0.2000 0.0500 0.0500 (  2071 PWs)   bands (ev):

    -5.5040   5.1321   5.7858   5.9279   8.6776   9.5675   9.7470  10.9362
    13.1444  14.1990  15.2075  17.6426  18.1795  18.7760  23.1948  27.4622
    27.6083  29.2843  29.3582  29.8097  32.8632  33.2979  33.6014  36.9432
    37.5051  38.1397  39.5023  40.1636  40.6112  42.7632

          k = 0.1667 0.0417 0.0417 (  2081 PWs)   bands (ev):

    -5.5647   5.4357   5.9328   6.0541   8.7470   9.4213   9.5354  10.6922
    13.3434  14.1645  14.9780  17.6400  18.0334  18.4988  22.8210  27.9933
    28.0848  29.4567  29.5935  29.9522  32.8086  33.1435  33.3438  36.6674
    37.0852  37.6018  39.9671  40.4664  40.7946  43.3457

          k = 0.1333 0.0333 0.0333 (  2089 PWs)   bands (ev):

    -5.6145   5.7207   6.0701   6.1628   8.8105   9.2833   9.3436  10.4474
    13.5627  14.1402  14.7798  17.6474  17.9110  18.2441  22.4990  28.4867
    28.5330  29.5104  29.8889  30.1299  32.7337  32.9760  33.0931  36.4337
    36.7162  37.1000  40.3774  40.7241  40.9431  43.8747

          k = 0.1000 0.0250 0.0250 (  2089 PWs)   bands (ev):

    -5.6532   5.9755   6.1909   6.2515   8.8646   9.1563   9.1793  10.2298
    13.7724  14.1238  14.6185  17.6600  17.8139  18.0213  22.2373  28.9206
    28.9354  29.5402  30.1622  30.3124  32.6437  32.8014  32.8584  36.2475
    36.4129  36.6596  40.7207  40.9309  41.0579  44.3282

          k = 0.0667 0.0167 0.0167 (  2087 PWs)   bands (ev):

    -5.6810   6.1833   6.2872   6.3174   8.9061   9.0471   9.0514  10.0605
    13.9474  14.1135  14.4993  17.6732  17.7436  17.8437  22.0437  29.2660
    29.2662  29.5574  30.3984  30.4747  32.5522  32.6345  32.6548  36.1123
    36.1878  36.3100  40.9828  41.0821  41.1398  44.6811

          k = 0.0333 0.0083 0.0083 (  2085 PWs)   bands (ev):

    -5.6976   6.3224   6.3500   6.3581   8.9322   8.9694   8.9696   9.9539
    14.0647  14.1079  14.4260  17.6830  17.7009  17.7274  21.9246  29.4895
    29.4912  29.5666  30.5696  30.5911  32.4811  32.5048  32.5086  36.0305
    36.0497  36.0825  41.1484  41.1743  41.1889  44.9075

          k = 0.0000 0.0000 0.0000 (  2085 PWs)   bands (ev):

    -5.7031   6.3719   6.3719   6.3719   8.9411   8.9411   8.9411   9.9177
    14.1062  14.1062  14.4012  17.6866  17.6866  17.6866  21.8844  29.5695
    29.5695  29.5695  30.6344  30.6344  32.4539  32.4539  32.4539  36.0032
    36.0032  36.0032  41.2053  41.2053  41.2053  44.9858

     Writing all to output data dir ./tmp/silicon.save/

     init_run     :      1.35s CPU      1.47s WALL (       1 calls)
     electrons    :    171.94s CPU    173.29s WALL (       1 calls)

     Called by init_run:
     wfcinit      :      0.00s CPU      0.00s WALL (       1 calls)
     wfcinit:atom :      0.03s CPU      0.04s WALL (      91 calls)
     wfcinit:wfcr :      4.62s CPU      4.69s WALL (      91 calls)
     potinit      :      0.50s CPU      0.54s WALL (       1 calls)
     hinit0       :      0.66s CPU      0.66s WALL (       1 calls)

     Called by electrons:
     c_bands      :    171.94s CPU    173.29s WALL (       1 calls)
     v_of_rho     :      0.08s CPU      0.10s WALL (       1 calls)
     v_h          :      0.00s CPU      0.01s WALL (       1 calls)
     v_xc         :      0.07s CPU      0.10s WALL (       1 calls)
     newd         :      0.12s CPU      0.20s WALL (       1 calls)
     PAW_pot      :      0.25s CPU      0.25s WALL (       1 calls)

     Called by c_bands:
     init_us_2    :      0.04s CPU      0.05s WALL (      91 calls)
     init_us_2:cp :      0.04s CPU      0.05s WALL (      91 calls)
     cegterg      :    166.81s CPU    168.00s WALL (     187 calls)

     Called by sum_band:

     Called by *egterg:
     cdiaghg      :      5.89s CPU      5.94s WALL (    3202 calls)
     cegterg:over :     23.58s CPU     23.72s WALL (    3111 calls)
     cegterg:upda :     14.82s CPU     14.92s WALL (    3111 calls)
     cegterg:last :     45.34s CPU     45.69s WALL (    2000 calls)
     h_psi        :     68.76s CPU     69.32s WALL (    3389 calls)
     s_psi        :      9.32s CPU      9.38s WALL (    3389 calls)
     g_psi        :      0.44s CPU      0.44s WALL (    3111 calls)

     Called by h_psi:
     h_psi:calbec :      8.90s CPU      8.96s WALL (    3389 calls)
     vloc_psi     :     50.21s CPU     50.66s WALL (    3389 calls)
     add_vuspsi   :      9.34s CPU      9.39s WALL (    3389 calls)

     General routines
     calbec       :      8.89s CPU      8.95s WALL (    3389 calls)
     fft          :      0.34s CPU      0.34s WALL (      13 calls)
     ffts         :      0.17s CPU      0.17s WALL (       1 calls)
     fftw         :     36.24s CPU     36.58s WALL (  122704 calls)
     interpolate  :      0.17s CPU      0.18s WALL (       1 calls)
     davcio       :      0.05s CPU      0.09s WALL (     182 calls)

     Parallel routines

     PAW routines
     PAW_pot      :      0.25s CPU      0.25s WALL (       1 calls)

     PWSCF        :   2m53.52s CPU   2m55.11s WALL


   This run was terminated on:  23:47:21  31May2023            

=------------------------------------------------------------------------------=
   JOB DONE.
=------------------------------------------------------------------------------=
