
     Program PWSCF v.7.2 starts on  1Jun2023 at  1:59:57 

     This program is part of the open-source Quantum ESPRESSO suite
     for quantum simulation of materials; please cite
         "P. Giannozzi et al., J. Phys.:Condens. Matter 21 395502 (2009);
         "P. Giannozzi et al., J. Phys.:Condens. Matter 29 465901 (2017);
         "P. Giannozzi et al., J. Chem. Phys. 152 154105 (2020);
          URL http://www.quantum-espresso.org", 
     in publications or presentations arising from this work. More details at
     http://www.quantum-espresso.org/quote

     Parallel version (MPI), running on     1 processors

     MPI processes distributed on     1 nodes
     621 MiB available memory on the printing compute node when the environment starts

     Waiting for input...
     Reading input from standard input

     Current dimensions of program PWSCF are:
     Max number of different atomic species (ntypx) = 10
     Max number of k-points (npk) =  40000
     Max angular momentum in pseudopotentials (lmaxx) =  4
     file Si.pbe-n-kjpaw_psl.1.0.0.UPF: wavefunction(s)  3S 3P renormalized

     IMPORTANT: XC functional enforced from input :
     Exchange-correlation= PBE0
                           (   6   4   8   4   0   0   0)
     EXX-fraction              =        0.25
     Any further DFT definition will be discarded
     Please, verify this is what you really want

     Message from routine set_cutoff:
     ecutrho < 4*ecutwfc, are you sure?
     Message from routine setup :
     BEWARE: nonlinear core correction is not consistent with hybrid XC
     Message from routine setup:
     Warning: ecutfock not valid for US/PAW, ignored

     Subspace diagonalization in iterative solution of the eigenvalue problem:
     a serial algorithm will be used

     EXX: q-point mesh:     2    2    2
     EXX: setup a grid of 96 q-points centered on each k-point
     (k+q)-points:
   0.0000000   0.0000000   0.0000000         1    1
   0.5000000  -0.5000000   0.5000000         4    1
  -0.5000000  -0.5000000  -0.5000000         4    3
   0.0000000  -1.0000000   0.0000000        13    1
   0.5000000   0.5000000  -0.5000000         4    4
  -1.0000000   0.0000000   0.0000000        13    5
   0.0000000   0.0000000  -1.0000000        13   13
  -0.5000000   0.5000000   0.5000000         4    2
  -0.1666667   0.1666667  -0.1666667         2    1
   0.3333333  -0.3333333   0.3333333         3   -1
  -0.6666667  -0.3333333  -0.6666667         7    3
   0.8333333   0.1666667   0.8333333        11   -3
   0.3333333   0.6666667  -0.6666667         7   -8
  -0.1666667  -0.8333333   0.8333333        11    8
   0.8333333  -0.8333333  -0.1666667        11   15
  -0.6666667   0.6666667   0.3333333         7  -15
  -0.3333333   0.3333333  -0.3333333         3    1
   0.1666667  -0.1666667   0.1666667         2   -1
  -0.8333333  -0.1666667  -0.8333333        11    3
   0.6666667   0.3333333   0.6666667         7   -3
   0.1666667   0.8333333  -0.8333333        11   -8
  -0.3333333  -0.6666667   0.6666667         7    8
   0.6666667  -0.6666667  -0.3333333         7   15
  -0.8333333   0.8333333   0.1666667        11  -15
   0.0000000   0.3333333   0.0000000         5    1
   0.5000000  -0.1666667   0.5000000         8    1
  -0.5000000  -0.1666667  -0.5000000         8    3
   0.0000000  -0.6666667   0.0000000        10   -1
  -0.5000000  -0.1666667   0.5000000         8   -4
   1.0000000   0.3333333   0.0000000        16   -5
   0.0000000   0.3333333   1.0000000        16  -17
   0.5000000  -0.1666667  -0.5000000         8   -2
  -0.1666667   0.5000000  -0.1666667         6    1
   0.3333333   0.0000000   0.3333333         9    1
  -0.6666667   0.0000000  -0.6666667        12   -1
  -0.1666667  -0.5000000  -0.1666667         6   -3
   0.3333333  -1.0000000  -0.6666667        14  -21
  -0.1666667  -0.5000000   0.8333333        15    8
  -0.1666667   0.5000000   0.8333333        15   -6
  -0.6666667  -1.0000000   0.3333333        14   14
   0.6666667  -0.3333333   0.6666667         7    1
   0.1666667   0.1666667   0.1666667         2    3
  -0.8333333   0.1666667  -0.8333333        11   -1
  -0.3333333  -0.3333333  -0.3333333         3   -3
   0.1666667  -0.8333333  -0.8333333        11    6
   0.6666667   0.6666667  -0.3333333         7  -14
  -0.3333333   0.6666667   0.6666667         7   -6
  -0.8333333  -0.8333333   0.1666667        11   14
   0.0000000   0.6666667   0.0000000        10    1
   0.5000000   0.1666667   0.5000000         8   -3
  -0.5000000   0.1666667  -0.5000000         8   -1
   0.0000000  -0.3333333   0.0000000         5   -1
  -0.5000000   0.1666667   0.5000000         8    2
   0.0000000  -0.3333333  -1.0000000        16   17
  -1.0000000  -0.3333333   0.0000000        16    5
   0.5000000   0.1666667  -0.5000000         8    4
   0.8333333  -0.1666667   0.8333333        11    1
   0.3333333   0.3333333   0.3333333         3    3
  -0.6666667   0.3333333  -0.6666667         7   -1
  -0.1666667  -0.1666667  -0.1666667         2   -3
   0.3333333  -0.6666667  -0.6666667         7    6
   0.8333333   0.8333333  -0.1666667        11  -14
  -0.1666667   0.8333333   0.8333333        11   -6
  -0.6666667  -0.6666667   0.3333333         7   14
   0.6666667   0.0000000   0.6666667        12    1
   0.1666667   0.5000000   0.1666667         6    3
   0.1666667  -0.5000000   0.1666667         6   -1
  -0.3333333   0.0000000  -0.3333333         9   -1
   0.1666667  -0.5000000  -0.8333333        15    6
   0.6666667   1.0000000  -0.3333333        14  -14
  -0.3333333   1.0000000   0.6666667        14   21
   0.1666667   0.5000000  -0.8333333        15   -8
   0.6666667  -0.3333333   1.0000000        14    1
   0.1666667   0.1666667   0.5000000         6  -16
  -0.8333333   0.1666667  -0.5000000        15   10
  -0.3333333  -0.3333333   0.0000000         9   14
  -0.8333333   0.1666667   0.5000000        15  -12
   0.6666667   0.6666667   0.0000000        12  -14
  -0.3333333   0.6666667  -1.0000000        14    5
   0.1666667   0.1666667  -0.5000000         6   14
   0.5000000  -0.1666667   0.8333333        15    1
   0.0000000   0.3333333   0.3333333         9   -6
  -1.0000000   0.3333333  -0.6666667        14   10
  -0.5000000  -0.1666667  -0.1666667         6    7
   0.0000000  -0.6666667  -0.6666667        12    6
  -0.5000000  -0.1666667   0.8333333        15   -4
   0.5000000  -0.1666667  -0.1666667         6   -6
  -1.0000000  -0.6666667   0.3333333        14  -17
  -0.3333333  -1.0000000   0.0000000        16    1
   0.1666667   0.5000000   0.5000000         8    7
   0.1666667  -0.5000000   0.5000000         8   -5
  -0.3333333   0.0000000   0.0000000         5   -5
   0.1666667  -0.5000000  -0.5000000         8    6
  -0.3333333   0.0000000   1.0000000        16  -13
   0.6666667   0.0000000   0.0000000        10    5
   0.1666667   0.5000000  -0.5000000         8   -8

     G-vector sticks info
     --------------------
     sticks:   dense  smooth     PW     G-vecs:    dense   smooth      PW
     Sum         637     637    199                10417    10417    1837

     Using Slab Decomposition



     bravais-lattice index     =            2
     lattice parameter (alat)  =      10.2076  a.u.
     unit-cell volume          =     265.8955 (a.u.)^3
     number of atoms/cell      =            2
     number of atomic types    =            1
     number of electrons       =         8.00
     number of Kohn-Sham states=            8
     kinetic-energy cutoff     =      44.0000  Ry
     charge density cutoff     =     175.0000  Ry
     cutoff for Fock operator  =     175.0000  Ry
     scf convergence threshold =      1.0E-06
     mixing beta               =       0.7000
     number of iterations used =            8  plain     mixing
     Exchange-correlation= PBE0
                           (   6   4   8   4   0   0   0)
     EXX-fraction              =        0.25

     celldm(1)=  10.207600  celldm(2)=   0.000000  celldm(3)=   0.000000
     celldm(4)=   0.000000  celldm(5)=   0.000000  celldm(6)=   0.000000

     crystal axes: (cart. coord. in units of alat)
               a(1) = (  -0.500000   0.000000   0.500000 )  
               a(2) = (   0.000000   0.500000   0.500000 )  
               a(3) = (  -0.500000   0.500000   0.000000 )  

     reciprocal axes: (cart. coord. in units 2 pi/alat)
               b(1) = ( -1.000000 -1.000000  1.000000 )  
               b(2) = (  1.000000  1.000000  1.000000 )  
               b(3) = ( -1.000000  1.000000 -1.000000 )  


     PseudoPot. # 1 for Si read from file:
     ./Si.pbe-n-kjpaw_psl.1.0.0.UPF
     MD5 check sum: c39c59da582df4a0d9f10159256ea34e
     Pseudo is Projector augmented-wave + core cor, Zval =  4.0
     Generated using &quot;atomic&quot; code by A. Dal Corso  v.6.3
     Shape of augmentation charge: PSQ
     Using radial grid of 1141 points,  6 beta functions with: 
                l(1) =   0
                l(2) =   0
                l(3) =   1
                l(4) =   1
                l(5) =   2
                l(6) =   2
     Q(r) pseudized with 0 coefficients 


     atomic species   valence    mass     pseudopotential
        Si             4.00    28.08600     Si( 1.00)

     48 Sym. Ops., with inversion, found (24 have fractional translation)



   Cartesian axes

     site n.     atom                  positions (alat units)
         1           Si  tau(   1) = (   0.0000000   0.0000000   0.0000000  )
         2           Si  tau(   2) = (   0.2500000   0.2500000   0.2500000  )

     number of k points=    16
                       cart. coord. in units 2pi/alat
        k(    1) = (   0.0000000   0.0000000   0.0000000), wk =   0.0092593
        k(    2) = (  -0.1666667   0.1666667  -0.1666667), wk =   0.0740741
        k(    3) = (  -0.3333333   0.3333333  -0.3333333), wk =   0.0740741
        k(    4) = (   0.5000000  -0.5000000   0.5000000), wk =   0.0370370
        k(    5) = (   0.0000000   0.3333333   0.0000000), wk =   0.0555556
        k(    6) = (  -0.1666667   0.5000000  -0.1666667), wk =   0.2222222
        k(    7) = (   0.6666667  -0.3333333   0.6666667), wk =   0.2222222
        k(    8) = (   0.5000000  -0.1666667   0.5000000), wk =   0.2222222
        k(    9) = (   0.3333333   0.0000000   0.3333333), wk =   0.1111111
        k(   10) = (   0.0000000   0.6666667   0.0000000), wk =   0.0555556
        k(   11) = (   0.8333333  -0.1666667   0.8333333), wk =   0.2222222
        k(   12) = (   0.6666667  -0.0000000   0.6666667), wk =   0.1111111
        k(   13) = (   0.0000000  -1.0000000   0.0000000), wk =   0.0277778
        k(   14) = (   0.6666667  -0.3333333   1.0000000), wk =   0.2222222
        k(   15) = (   0.5000000  -0.1666667   0.8333333), wk =   0.2222222
        k(   16) = (  -0.3333333  -1.0000000   0.0000000), wk =   0.1111111

     Dense  grid:    10417 G-vectors     FFT dimensions: (  32,  32,  32)

     Estimated max dynamical RAM per process >     288.55 MB
     EXX: ACE will be initialized later

     Check: negative core charge=   -0.000001

     Initial potential from superposition of free atoms

     starting charge       7.9989, renormalised to       8.0000
     Starting wfcs are    8 randomized atomic wfcs

     total cpu time spent up to now is        1.1 secs

     Self-consistent Calculation

     iteration #  1     ecut=    44.00 Ry     beta= 0.70
     Davidson diagonalization with overlap
     ethr =  1.00E-02,  avg # of iterations =  3.6

     Threshold (ethr) on eigenvalues was too large:
     Diagonalizing with lowered threshold

     Davidson diagonalization with overlap
     ethr =  6.76E-04,  avg # of iterations =  2.2

     total cpu time spent up to now is        2.3 secs

     total energy              =     -93.44779203 Ry
     estimated scf accuracy    <       0.05821335 Ry

     iteration #  2     ecut=    44.00 Ry     beta= 0.70
     Davidson diagonalization with overlap
     ethr =  7.28E-04,  avg # of iterations =  1.5

     total cpu time spent up to now is        3.1 secs

     total energy              =     -93.45044382 Ry
     estimated scf accuracy    <       0.00225640 Ry

     iteration #  3     ecut=    44.00 Ry     beta= 0.70
     Davidson diagonalization with overlap
     ethr =  2.82E-05,  avg # of iterations =  3.9

     total cpu time spent up to now is        3.8 secs

     total energy              =     -93.45060486 Ry
     estimated scf accuracy    <       0.00005226 Ry

     iteration #  4     ecut=    44.00 Ry     beta= 0.70
     Davidson diagonalization with overlap
     ethr =  6.53E-07,  avg # of iterations =  3.4

     total cpu time spent up to now is        4.7 secs

     End of self-consistent calculation

          k = 0.0000 0.0000 0.0000 (  1363 PWs)   bands (ev):

    -5.6958   6.3815   6.3815   6.3815   8.9468   8.9468   8.9468   9.9274

          k =-0.1667 0.1667-0.1667 (  1321 PWs)   bands (ev):

    -5.3296   3.9848   5.9233   5.9233   8.7794   9.6041   9.6041  11.9746

          k =-0.3333 0.3333-0.3333 (  1326 PWs)   bands (ev):

    -4.2983   0.9944   5.3669   5.3669   8.1969   9.8878   9.8878  14.3111

          k = 0.5000-0.5000 0.5000 (  1308 PWs)   bands (ev):

    -3.3231  -0.6696   5.1670   5.1670   7.9720   9.7103   9.7103  14.1308

          k = 0.0000 0.3333 0.0000 (  1319 PWs)   bands (ev):

    -5.2050   4.3547   5.1658   5.1658   8.0761  10.7431  10.7593  10.7593

          k =-0.1667 0.5000-0.1667 (  1315 PWs)   bands (ev):

    -4.3778   1.9170   4.3631   4.6056   8.3406  10.4844  10.9290  11.4874

          k = 0.6667-0.3333 0.6667 (  1310 PWs)   bands (ev):

    -3.1640  -0.2904   3.5688   4.5770   8.4208  10.5391  11.0142  12.8466

          k = 0.5000-0.1667 0.5000 (  1315 PWs)   bands (ev):

    -3.5571   0.3204   3.2899   5.0651   8.8493  10.5357  10.6202  13.7517

          k = 0.3333 0.0000 0.3333 (  1313 PWs)   bands (ev):

    -4.7328   2.6467   3.9247   5.8102   9.4661   9.9540  10.2570  12.1109

          k = 0.0000 0.6667 0.0000 (  1299 PWs)   bands (ev):

    -3.7648   1.3530   3.9238   3.9238   7.0813   8.3464  13.7146  13.7146

          k = 0.8333-0.1667 0.8333 (  1314 PWs)   bands (ev):

    -2.5823  -0.2231   2.6839   3.7861   7.4157   9.0923  13.8863  13.9514

          k = 0.6667-0.0000 0.6667 (  1316 PWs)   bands (ev):

    -2.3788  -0.4354   1.8876   4.2358   7.9293  12.1994  12.9101  13.5430

          k = 0.0000-1.0000 0.0000 (  1298 PWs)   bands (ev):

    -1.4923  -1.4923   3.4835   3.4835   7.0555   7.0555  16.6224  16.6224

          k = 0.6667-0.3333 1.0000 (  1300 PWs)   bands (ev):

    -3.3724   0.7078   2.7491   4.0457   9.2394  10.0880  10.6615  13.5107

          k = 0.5000-0.1667 0.8333 (  1302 PWs)   bands (ev):

    -2.3681  -0.5137   2.3048   3.5686   9.7277   9.9680  12.5144  12.9627

          k =-0.3333-1.0000 0.0000 (  1312 PWs)   bands (ev):

    -1.3670  -1.3670   2.6694   2.6694   9.1261   9.1261  13.2034  13.2034

     highest occupied, lowest unoccupied level (ev):     6.3815    7.0555

!    total energy              =     -93.45061772 Ry
     estimated scf accuracy    <       0.00000033 Ry

     convergence has been achieved in   4 iterations

     Using ACE for calculation of exact exchange

     EXX grid:    10417 G-vectors     FFT dimensions: (  32,  32,  32)
     ACE projected onto     8 (nbndproj) and applied to     8 (nbnd) bands

     EXX: now go back to refine exchange calculation

     total cpu time spent up to now is      280.4 secs

     Self-consistent Calculation

     iteration #  1     ecut=    44.00 Ry     beta= 0.70
     Davidson diagonalization with overlap
     ethr =  6.53E-07,  avg # of iterations =  7.4

     total cpu time spent up to now is      281.5 secs

     total energy              =     -74.28809566 Ry
     estimated scf accuracy    <       0.00167898 Ry

     iteration #  2     ecut=    44.00 Ry     beta= 0.70
     Davidson diagonalization with overlap
     ethr =  2.10E-05,  avg # of iterations =  2.2

     total cpu time spent up to now is      282.3 secs

     total energy              =     -74.19843495 Ry
     estimated scf accuracy    <       0.00046384 Ry

     iteration #  3     ecut=    44.00 Ry     beta= 0.70
     Davidson diagonalization with overlap
     ethr =  5.80E-06,  avg # of iterations =  2.1

     total cpu time spent up to now is      283.0 secs

     total energy              =     -74.19848198 Ry
     estimated scf accuracy    <       0.00042688 Ry

     iteration #  4     ecut=    44.00 Ry     beta= 0.70
     Davidson diagonalization with overlap
     ethr =  5.34E-06,  avg # of iterations =  1.0

     total cpu time spent up to now is      283.6 secs

     total energy              =     -74.19842714 Ry
     estimated scf accuracy    <       0.00009681 Ry

     iteration #  5     ecut=    44.00 Ry     beta= 0.70
     Davidson diagonalization with overlap
     ethr =  1.21E-06,  avg # of iterations =  2.0

     total cpu time spent up to now is      284.2 secs

     End of self-consistent calculation

          k = 0.0000 0.0000 0.0000 (  1363 PWs)   bands (ev):

    -7.5013   5.6806   5.6806   5.6806  10.0778  10.0778  10.0778  11.7671

          k =-0.1667 0.1667-0.1667 (  1321 PWs)   bands (ev):

    -7.1008   3.2659   5.2265   5.2265  10.0855  10.7370  10.7370  13.6927

          k =-0.3333 0.3333-0.3333 (  1326 PWs)   bands (ev):

    -6.0091   0.1541   4.6585   4.6585   9.5081  10.9750  10.9751  15.5853

          k = 0.5000-0.5000 0.5000 (  1308 PWs)   bands (ev):

    -4.8360  -1.8257   4.4216   4.4216   9.2051  10.7824  10.7825  15.2571

          k = 0.0000 0.3333 0.0000 (  1319 PWs)   bands (ev):

    -6.9651   3.7723   4.4027   4.4027   9.1351  11.9867  11.9867  12.0282

          k =-0.1667 0.5000-0.1667 (  1315 PWs)   bands (ev):

    -6.0861   1.1588   3.6799   3.8242   9.3806  11.5927  12.1809  12.6744

          k = 0.6667-0.3333 0.6667 (  1310 PWs)   bands (ev):

    -4.6693  -1.3743   2.8140   3.7924   9.4712  11.7754  12.1187  14.0448

          k = 0.5000-0.1667 0.5000 (  1315 PWs)   bands (ev):

    -5.1450  -0.6481   2.4912   4.3533   9.9935  11.7145  11.7293  15.1007

          k = 0.3333 0.0000 0.3333 (  1313 PWs)   bands (ev):

    -6.4624   1.9185   3.1359   5.1593  10.7485  11.0622  11.4302  13.4278

          k = 0.0000 0.6667 0.0000 (  1299 PWs)   bands (ev):

    -5.4474   0.6679   3.1108   3.1108   8.0507   9.3224  15.0368  15.0369

          k = 0.8333-0.1667 0.8333 (  1314 PWs)   bands (ev):

    -4.0641  -1.2500   1.8526   2.9608   8.3728  10.1062  15.1152  15.3633

          k = 0.6667-0.0000 0.6667 (  1316 PWs)   bands (ev):

    -3.7789  -1.5421   1.0612   3.4599   8.9279  13.2138  14.1931  14.9621

          k = 0.0000-1.0000 0.0000 (  1298 PWs)   bands (ev):

    -2.7648  -2.7648   2.6272   2.6272   7.9866   7.9867  18.4792  18.4793

          k = 0.6667-0.3333 1.0000 (  1300 PWs)   bands (ev):

    -4.9550  -0.2132   1.9329   3.2877  10.2952  11.0613  11.9062  14.8169

          k = 0.5000-0.1667 0.8333 (  1302 PWs)   bands (ev):

    -3.7519  -1.6593   1.4946   2.7517  10.7273  11.1101  13.6116  14.2619

          k =-0.3333-1.0000 0.0000 (  1312 PWs)   bands (ev):

    -2.6231  -2.6231   1.8132   1.8132  10.1465  10.1466  14.4453  14.4454

     highest occupied, lowest unoccupied level (ev):     5.6806    7.9866

!    total energy              =     -74.19844430 Ry
     estimated scf accuracy    <       0.00000041 Ry

     convergence has been achieved in   5 iterations

     Using ACE for calculation of exact exchange
     ACE projected onto     8 (nbndproj) and applied to     8 (nbnd) bands

     total energy              =     -74.19946479 Ry
     Harris-Foulkes estimate   =     -74.19946504 Ry
     est. exchange err (dexx)  =       0.00102049 Ry
     - averaged Fock potential =       2.14184202 Ry
     + Fock energy (ACE)       =      -1.07060701 Ry

     EXX: now go back to refine exchange calculation

     total cpu time spent up to now is      543.8 secs

     Self-consistent Calculation

     iteration #  1     ecut=    44.00 Ry     beta= 0.70
     Davidson diagonalization with overlap
     ethr =  1.21E-06,  avg # of iterations =  3.3

     total cpu time spent up to now is      544.5 secs

     total energy              =     -74.19956676 Ry
     estimated scf accuracy    <       0.00002934 Ry

     iteration #  2     ecut=    44.00 Ry     beta= 0.70
     Davidson diagonalization with overlap
     ethr =  3.67E-07,  avg # of iterations =  1.4

     total cpu time spent up to now is      545.1 secs

     End of self-consistent calculation

          k = 0.0000 0.0000 0.0000 (  1363 PWs)   bands (ev):

    -7.5099   5.6433   5.6433   5.6433  10.0798  10.0798  10.0798  11.7958

          k =-0.1667 0.1667-0.1667 (  1321 PWs)   bands (ev):

    -7.1071   3.2551   5.1990   5.1990  10.0958  10.7341  10.7341  13.7067

          k =-0.3333 0.3333-0.3333 (  1326 PWs)   bands (ev):

    -6.0154   0.1468   4.6327   4.6327   9.5206  10.9705  10.9705  15.5764

          k = 0.5000-0.5000 0.5000 (  1308 PWs)   bands (ev):

    -4.8429  -1.8417   4.3921   4.3921   9.2141  10.7773  10.7773  15.2607

          k = 0.0000 0.3333 0.0000 (  1319 PWs)   bands (ev):

    -6.9706   3.7692   4.3793   4.3793   9.1354  11.9795  11.9795  12.0069

          k =-0.1667 0.5000-0.1667 (  1315 PWs)   bands (ev):

    -6.0907   1.1548   3.6698   3.8025   9.3780  11.5794  12.1782  12.6631

          k = 0.6667-0.3333 0.6667 (  1310 PWs)   bands (ev):

    -4.6715  -1.3854   2.8022   3.7685   9.4691  11.7699  12.1050  14.0352

          k = 0.5000-0.1667 0.5000 (  1315 PWs)   bands (ev):

    -5.1478  -0.6558   2.4762   4.3321   9.9955  11.7023  11.7219  15.0958

          k = 0.3333 0.0000 0.3333 (  1313 PWs)   bands (ev):

    -6.4669   1.9144   3.1193   5.1377  10.7573  11.0551  11.4234  13.4201

          k = 0.0000 0.6667 0.0000 (  1299 PWs)   bands (ev):

    -5.4537   0.6702   3.0896   3.0896   8.0487   9.3173  15.0263  15.0263

          k = 0.8333-0.1667 0.8333 (  1314 PWs)   bands (ev):

    -4.0681  -1.2534   1.8355   2.9378   8.3699  10.0961  15.0975  15.3568

          k = 0.6667-0.0000 0.6667 (  1316 PWs)   bands (ev):

    -3.7782  -1.5428   1.0411   3.4385   8.9258  13.1995  14.1856  14.9612

          k = 0.0000-1.0000 0.0000 (  1298 PWs)   bands (ev):

    -2.7746  -2.7746   2.6020   2.6020   7.9857   7.9857  18.4856  18.4856

          k = 0.6667-0.3333 1.0000 (  1300 PWs)   bands (ev):

    -4.9572  -0.2152   1.9167   3.2730  10.2847  11.0471  11.8997  14.8046

          k = 0.5000-0.1667 0.8333 (  1302 PWs)   bands (ev):

    -3.7505  -1.6628   1.4783   2.7343  10.7136  11.1023  13.5896  14.2551

          k =-0.3333-1.0000 0.0000 (  1312 PWs)   bands (ev):

    -2.6238  -2.6238   1.7940   1.7940  10.1361  10.1361  14.4336  14.4336

     highest occupied, lowest unoccupied level (ev):     5.6433    7.9857

!    total energy              =     -74.19956988 Ry
     estimated scf accuracy    <       0.00000063 Ry

     convergence has been achieved in   2 iterations

     Using ACE for calculation of exact exchange
     ACE projected onto     8 (nbndproj) and applied to     8 (nbnd) bands

     total energy              =     -74.19958416 Ry
     Harris-Foulkes estimate   =     -74.19958449 Ry
     est. exchange err (dexx)  =       0.00001428 Ry
     - averaged Fock potential =       2.14101019 Ry
     + Fock energy (ACE)       =      -1.07041747 Ry

     EXX: now go back to refine exchange calculation

     total cpu time spent up to now is      806.6 secs

     Self-consistent Calculation

     iteration #  1     ecut=    44.00 Ry     beta= 0.70
     Davidson diagonalization with overlap
     ethr =  3.67E-07,  avg # of iterations =  1.9

     Threshold (ethr) on eigenvalues was too large:
     Diagonalizing with lowered threshold

     Davidson diagonalization with overlap
     ethr =  2.46E-09,  avg # of iterations =  3.6

     total cpu time spent up to now is      807.6 secs

     End of self-consistent calculation

          k = 0.0000 0.0000 0.0000 (  1363 PWs)   bands (ev):

    -7.5103   5.6380   5.6380   5.6380  10.0816  10.0816  10.0816  11.7994

          k =-0.1667 0.1667-0.1667 (  1321 PWs)   bands (ev):

    -7.1070   3.2549   5.1959   5.1959  10.0975  10.7350  10.7350  13.7093

          k =-0.3333 0.3333-0.3333 (  1326 PWs)   bands (ev):

    -6.0154   0.1469   4.6299   4.6299   9.5227  10.9713  10.9713  15.5753

          k = 0.5000-0.5000 0.5000 (  1308 PWs)   bands (ev):

    -4.8429  -1.8433   4.3884   4.3884   9.2160  10.7781  10.7781  15.2617

          k = 0.0000 0.3333 0.0000 (  1319 PWs)   bands (ev):

    -6.9703   3.7702   4.3773   4.3773   9.1360  11.9794  11.9795  12.0045

          k =-0.1667 0.5000-0.1667 (  1315 PWs)   bands (ev):

    -6.0903   1.1555   3.6698   3.8005   9.3782  11.5782  12.1788  12.6625

          k = 0.6667-0.3333 0.6667 (  1310 PWs)   bands (ev):

    -4.6703  -1.3863   2.8019   3.7660   9.4694  11.7699  12.1040  14.0343

          k = 0.5000-0.1667 0.5000 (  1315 PWs)   bands (ev):

    -5.1469  -0.6559   2.4749   4.3305   9.9963  11.7014  11.7217  15.0950

          k = 0.3333 0.0000 0.3333 (  1313 PWs)   bands (ev):

    -6.4664   1.9151   3.1179   5.1359  10.7594  11.0550  11.4235  13.4200

          k = 0.0000 0.6667 0.0000 (  1299 PWs)   bands (ev):

    -5.4535   0.6716   3.0879   3.0879   8.0488   9.3171  15.0259  15.0259

          k = 0.8333-0.1667 0.8333 (  1314 PWs)   bands (ev):

    -4.0672  -1.2529   1.8341   2.9355   8.3700  10.0952  15.0960  15.3568

          k = 0.6667-0.0000 0.6667 (  1316 PWs)   bands (ev):

    -3.7768  -1.5413   1.0387   3.4367   8.9261  13.1984  14.1853  14.9618

          k = 0.0000-1.0000 0.0000 (  1298 PWs)   bands (ev):

    -2.7752  -2.7752   2.5992   2.5992   7.9866   7.9866  18.4874  18.4874

          k = 0.6667-0.3333 1.0000 (  1300 PWs)   bands (ev):

    -4.9560  -0.2143   1.9152   3.2722  10.2837  11.0458  11.8996  14.8039

          k = 0.5000-0.1667 0.8333 (  1302 PWs)   bands (ev):

    -3.7487  -1.6620   1.4768   2.7328  10.7122  11.1019  13.5866  14.2548

          k =-0.3333-1.0000 0.0000 (  1312 PWs)   bands (ev):

    -2.6224  -2.6224   1.7920   1.7920  10.1352  10.1352  14.4328  14.4328

     highest occupied, lowest unoccupied level (ev):     5.6380    7.9866

!    total energy              =     -74.19958636 Ry
     estimated scf accuracy    <       0.00000022 Ry

     convergence has been achieved in   1 iterations

     Using ACE for calculation of exact exchange
     ACE projected onto     8 (nbndproj) and applied to     8 (nbnd) bands

!!   total energy              =     -74.19958675 Ry
     Harris-Foulkes estimate   =     -74.19958688 Ry
     est. exchange err (dexx)  =       0.00000039 Ry
     - averaged Fock potential =       2.14083123 Ry
     + Fock energy (ACE)       =      -1.07041415 Ry

     EXX self-consistency reached

     init_run     :      0.94s CPU      0.96s WALL (       1 calls)
     electrons    :      9.77s CPU      9.82s WALL (       4 calls)

     Called by init_run:
     aceinit0     :      0.00s CPU      0.00s WALL (       1 calls)
     wfcinit      :      0.23s CPU      0.23s WALL (       1 calls)
     potinit      :      0.27s CPU      0.28s WALL (       1 calls)
     hinit0       :      0.38s CPU      0.39s WALL (       1 calls)

     Called by electrons:
     c_bands      :      5.13s CPU      5.16s WALL (      14 calls)
     sum_band     :      1.02s CPU      1.03s WALL (      14 calls)
     v_of_rho     :      0.16s CPU      0.16s WALL (      14 calls)
     newd         :      0.33s CPU      0.33s WALL (      13 calls)
     PAW_pot      :      3.66s CPU      3.69s WALL (      14 calls)
     mix_rho      :      0.01s CPU      0.01s WALL (      14 calls)

     Called by c_bands:
     init_us_2    :      0.40s CPU      0.40s WALL (    1040 calls)
     init_us_2:cp :      0.40s CPU      0.40s WALL (    1040 calls)
     cegterg      :      4.68s CPU      4.70s WALL (     224 calls)

     Called by *egterg:
     cdiaghg      :      0.08s CPU      0.08s WALL (     774 calls)
     h_psi        :      3.22s CPU      3.24s WALL (     870 calls)
     s_psi        :      0.58s CPU      0.58s WALL (     870 calls)
     g_psi        :      0.05s CPU      0.05s WALL (     630 calls)

     Called by h_psi:
     h_psi:calbec :      0.57s CPU      0.57s WALL (     870 calls)
     vloc_psi     :      1.91s CPU      1.92s WALL (     870 calls)
     add_vuspsi   :      0.57s CPU      0.57s WALL (     870 calls)

     General routines
     calbec       :      0.94s CPU      0.94s WALL (    1987 calls)
     fft          :      0.16s CPU      0.16s WALL (     150 calls)
     ffts         :      0.00s CPU      0.00s WALL (      14 calls)
     fftw         :      1.77s CPU      1.78s WALL (   12212 calls)
     fftc         :     14.58s CPU     14.66s WALL (   65536 calls)
     fftcw        :      0.25s CPU      0.26s WALL (    1536 calls)

     Parallel routines

     EXX routines
     exx_grid     :      0.00s CPU      0.00s WALL (       1 calls)
     exxinit      :     16.52s CPU     16.81s WALL (       4 calls)
     vexx         :   1039.15s CPU   1042.20s WALL (      64 calls)
     matcalc      :      0.12s CPU      0.12s WALL (     829 calls)
     aceupdate    :      0.01s CPU      0.01s WALL (      64 calls)
     vexxace      :      0.22s CPU      0.22s WALL (     653 calls)
     aceinit      :   1039.17s CPU   1042.22s WALL (      64 calls)

     EXX+US  routines
     becxx        :      0.00s CPU      0.00s WALL (       4 calls)
     addusxx      :    516.02s CPU    517.60s WALL (   32768 calls)
     newdxx       :    462.58s CPU    463.99s WALL (   32768 calls)
     qvan_init    :     16.07s CPU     16.11s WALL (     512 calls)
     nlxx_pot     :      0.25s CPU      0.25s WALL (     512 calls)

     EXX+PAW routines
     PAW_newdxx   :     17.56s CPU     17.68s WALL (   32768 calls)

     PWSCF        :  17m46.99s CPU  17m50.42s WALL


   This run was terminated on:   2:17:48   1Jun2023            

=------------------------------------------------------------------------------=
   JOB DONE.
=------------------------------------------------------------------------------=
