
     Program Q2R v.7.2 starts on 28Apr2023 at  1:24:21 

     This program is part of the open-source Quantum ESPRESSO suite
     for quantum simulation of materials; please cite
         "P. Giannozzi et al., J. Phys.:Condens. Matter 21 395502 (2009);
         "P. Giannozzi et al., J. Phys.:Condens. Matter 29 465901 (2017);
         "P. Giannozzi et al., J. Chem. Phys. 152 154105 (2020);
          URL http://www.quantum-espresso.org", 
     in publications or presentations arising from this work. More details at
     http://www.quantum-espresso.org/quote

     Parallel version (MPI), running on     1 processors

     MPI processes distributed on     1 nodes
     424 MiB available memory on the printing compute node when the environment starts


  reading grid info from file c_chain.dyn0    

  reading force constants from file c_chain.dyn1
  Dielectric Tensor not found
  nqs=            1
 q=   0.00000000  0.00000000  0.00000000
  reading force constants from file c_chain.dyn2
  nqs=            2
 q=   0.00000000  0.00000000  1.94597961
 q=   0.00000000  0.00000000 -1.94597961
  reading force constants from file c_chain.dyn3
  nqs=            1
 q=   0.00000000  0.00000000 -3.89195921

      q-space grid ok, #points =    4

      fft-check success (sum of imaginary terms < 10^-12)

     Q2R          :      0.00s CPU      0.00s WALL


   This run was terminated on:   1:24:21  28Apr2023            

=------------------------------------------------------------------------------=
   JOB DONE.
=------------------------------------------------------------------------------=
