### Running on host: ip-172-31-10-78

     Program PWSCF v.7.2 starts on  2Jun2023 at 16:38:50 

     This program is part of the open-source Quantum ESPRESSO suite
     for quantum simulation of materials; please cite
         "P. Giannozzi et al., J. Phys.:Condens. Matter 21 395502 (2009);
         "P. Giannozzi et al., J. Phys.:Condens. Matter 29 465901 (2017);
         "P. Giannozzi et al., J. Chem. Phys. 152 154105 (2020);
          URL http://www.quantum-espresso.org", 
     in publications or presentations arising from this work. More details at
     http://www.quantum-espresso.org/quote

     Parallel version (MPI), running on     1 processors

     MPI processes distributed on     1 nodes
     378 MiB available memory on the printing compute node when the environment starts

     Reading input from eos.Al.d/eos.Al.5.in

     Current dimensions of program PWSCF are:
     Max number of different atomic species (ntypx) = 10
     Max number of k-points (npk) =  40000
     Max angular momentum in pseudopotentials (lmaxx) =  4
     Message from routine setup:
     no reason to have ecutrho>4*ecutwfc

     Subspace diagonalization in iterative solution of the eigenvalue problem:
     a serial algorithm will be used


     G-vector sticks info
     --------------------
     sticks:   dense  smooth     PW     G-vecs:    dense   smooth      PW
     Sum         301     151     61                 3383     1243     331

     Using Slab Decomposition



     bravais-lattice index     =            2
     lattice parameter (alat)  =       7.3508  a.u.
     unit-cell volume          =      99.2990 (a.u.)^3
     number of atoms/cell      =            1
     number of atomic types    =            1
     number of electrons       =         3.00
     number of Kohn-Sham states=            6
     kinetic-energy cutoff     =      20.0000  Ry
     charge density cutoff     =     160.0000  Ry
     scf convergence threshold =      1.0E-06
     mixing beta               =       0.7000
     number of iterations used =            8  plain     mixing
     Exchange-correlation=  SLA  PZ   NOGX NOGC
                           (   1   1   0   0   0   0   0)

     celldm(1)=   7.350806  celldm(2)=   0.000000  celldm(3)=   0.000000
     celldm(4)=   0.000000  celldm(5)=   0.000000  celldm(6)=   0.000000

     crystal axes: (cart. coord. in units of alat)
               a(1) = (  -0.500000   0.000000   0.500000 )  
               a(2) = (   0.000000   0.500000   0.500000 )  
               a(3) = (  -0.500000   0.500000   0.000000 )  

     reciprocal axes: (cart. coord. in units 2 pi/alat)
               b(1) = ( -1.000000 -1.000000  1.000000 )  
               b(2) = (  1.000000  1.000000  1.000000 )  
               b(3) = ( -1.000000  1.000000 -1.000000 )  


     PseudoPot. # 1 for Al read from file:
     ./Al.pz-vbc.UPF
     MD5 check sum: c34c8b369e81ee50c191f4345b5f621b
     Pseudo is Norm-conserving, Zval =  3.0
     Generated by new atomic code, or converted to UPF format
     Using radial grid of  171 points,  2 beta functions with: 
                l(1) =   0
                l(2) =   1

     atomic species   valence    mass     pseudopotential
        Al             3.00    26.98000     Al( 1.00)

     48 Sym. Ops., with inversion, found



   Cartesian axes

     site n.     atom                  positions (alat units)
         1           Al  tau(   1) = (   0.0000000   0.0000000   0.0000000  )

     number of k points=    60  Marzari-Vanderbilt smearing, width (Ry)=  0.0200
                       cart. coord. in units 2pi/alat
        k(    1) = (  -0.0625000   0.0625000   0.0625000), wk =   0.0078125
        k(    2) = (  -0.1875000   0.1875000  -0.0625000), wk =   0.0234375
        k(    3) = (  -0.3125000   0.3125000  -0.1875000), wk =   0.0234375
        k(    4) = (  -0.4375000   0.4375000  -0.3125000), wk =   0.0234375
        k(    5) = (   0.4375000  -0.4375000   0.5625000), wk =   0.0234375
        k(    6) = (   0.3125000  -0.3125000   0.4375000), wk =   0.0234375
        k(    7) = (   0.1875000  -0.1875000   0.3125000), wk =   0.0234375
        k(    8) = (   0.0625000  -0.0625000   0.1875000), wk =   0.0234375
        k(    9) = (  -0.0625000   0.3125000   0.0625000), wk =   0.0234375
        k(   10) = (  -0.1875000   0.4375000  -0.0625000), wk =   0.0468750
        k(   11) = (  -0.3125000   0.5625000  -0.1875000), wk =   0.0468750
        k(   12) = (   0.5625000  -0.3125000   0.6875000), wk =   0.0468750
        k(   13) = (   0.4375000  -0.1875000   0.5625000), wk =   0.0468750
        k(   14) = (   0.3125000  -0.0625000   0.4375000), wk =   0.0468750
        k(   15) = (   0.1875000   0.0625000   0.3125000), wk =   0.0468750
        k(   16) = (  -0.0625000   0.5625000   0.0625000), wk =   0.0234375
        k(   17) = (  -0.1875000   0.6875000  -0.0625000), wk =   0.0468750
        k(   18) = (   0.6875000  -0.1875000   0.8125000), wk =   0.0468750
        k(   19) = (   0.5625000  -0.0625000   0.6875000), wk =   0.0468750
        k(   20) = (   0.4375000   0.0625000   0.5625000), wk =   0.0468750
        k(   21) = (   0.3125000   0.1875000   0.4375000), wk =   0.0468750
        k(   22) = (  -0.0625000   0.8125000   0.0625000), wk =   0.0234375
        k(   23) = (   0.8125000  -0.0625000   0.9375000), wk =   0.0468750
        k(   24) = (   0.6875000   0.0625000   0.8125000), wk =   0.0468750
        k(   25) = (   0.5625000   0.1875000   0.6875000), wk =   0.0468750
        k(   26) = (   0.4375000   0.3125000   0.5625000), wk =   0.0468750
        k(   27) = (  -0.0625000  -0.9375000   0.0625000), wk =   0.0234375
        k(   28) = (  -0.1875000  -0.8125000  -0.0625000), wk =   0.0468750
        k(   29) = (  -0.3125000  -0.6875000  -0.1875000), wk =   0.0468750
        k(   30) = (  -0.0625000  -0.6875000   0.0625000), wk =   0.0234375
        k(   31) = (  -0.1875000  -0.5625000  -0.0625000), wk =   0.0468750
        k(   32) = (  -0.0625000  -0.4375000   0.0625000), wk =   0.0234375
        k(   33) = (  -0.1875000   0.1875000   0.1875000), wk =   0.0078125
        k(   34) = (  -0.3125000   0.3125000   0.0625000), wk =   0.0234375
        k(   35) = (  -0.4375000   0.4375000  -0.0625000), wk =   0.0234375
        k(   36) = (   0.4375000  -0.4375000   0.8125000), wk =   0.0234375
        k(   37) = (   0.3125000  -0.3125000   0.6875000), wk =   0.0234375
        k(   38) = (   0.1875000  -0.1875000   0.5625000), wk =   0.0234375
        k(   39) = (  -0.1875000   0.4375000   0.1875000), wk =   0.0234375
        k(   40) = (  -0.3125000   0.5625000   0.0625000), wk =   0.0468750
        k(   41) = (   0.5625000  -0.3125000   0.9375000), wk =   0.0468750
        k(   42) = (   0.4375000  -0.1875000   0.8125000), wk =   0.0468750
        k(   43) = (   0.3125000  -0.0625000   0.6875000), wk =   0.0468750
        k(   44) = (  -0.1875000   0.6875000   0.1875000), wk =   0.0234375
        k(   45) = (   0.6875000  -0.1875000   1.0625000), wk =   0.0468750
        k(   46) = (   0.5625000  -0.0625000   0.9375000), wk =   0.0468750
        k(   47) = (   0.4375000   0.0625000   0.8125000), wk =   0.0468750
        k(   48) = (  -0.1875000  -1.0625000   0.1875000), wk =   0.0234375
        k(   49) = (  -0.3125000  -0.9375000   0.0625000), wk =   0.0468750
        k(   50) = (  -0.1875000  -0.8125000   0.1875000), wk =   0.0234375
        k(   51) = (  -0.3125000   0.3125000   0.3125000), wk =   0.0078125
        k(   52) = (  -0.4375000   0.4375000   0.1875000), wk =   0.0234375
        k(   53) = (   0.4375000  -0.4375000   1.0625000), wk =   0.0234375
        k(   54) = (   0.3125000  -0.3125000   0.9375000), wk =   0.0234375
        k(   55) = (  -0.3125000   0.5625000   0.3125000), wk =   0.0234375
        k(   56) = (   0.5625000  -0.3125000   1.1875000), wk =   0.0468750
        k(   57) = (   0.4375000  -0.1875000   1.0625000), wk =   0.0468750
        k(   58) = (  -0.3125000  -1.1875000   0.3125000), wk =   0.0234375
        k(   59) = (  -0.4375000   0.4375000   0.4375000), wk =   0.0078125
        k(   60) = (   0.4375000  -0.4375000   1.3125000), wk =   0.0234375

     Dense  grid:     3383 G-vectors     FFT dimensions: (  24,  24,  24)

     Smooth grid:     1243 G-vectors     FFT dimensions: (  15,  15,  15)

     Estimated max dynamical RAM per process >       3.34 MB

     Initial potential from superposition of free atoms

     starting charge       2.9979, renormalised to       3.0000
     Starting wfcs are    9 randomized atomic wfcs

     total cpu time spent up to now is        0.2 secs

     Self-consistent Calculation

     iteration #  1     ecut=    20.00 Ry     beta= 0.70
     Davidson diagonalization with overlap
     ethr =  1.00E-02,  avg # of iterations =  3.1

     Threshold (ethr) on eigenvalues was too large:
     Diagonalizing with lowered threshold

     Davidson diagonalization with overlap
     ethr =  1.97E-04,  avg # of iterations =  2.2

     total cpu time spent up to now is        0.4 secs

     total energy              =      -4.18862842 Ry
     estimated scf accuracy    <       0.00590063 Ry

     iteration #  2     ecut=    20.00 Ry     beta= 0.70
     Davidson diagonalization with overlap
     ethr =  1.97E-04,  avg # of iterations =  1.0

     negative rho (up, down):  2.771E-06 0.000E+00

     total cpu time spent up to now is        0.5 secs

     total energy              =      -4.18867567 Ry
     estimated scf accuracy    <       0.00046198 Ry

     iteration #  3     ecut=    20.00 Ry     beta= 0.70
     Davidson diagonalization with overlap
     ethr =  1.54E-05,  avg # of iterations =  1.7

     total cpu time spent up to now is        0.5 secs

     End of self-consistent calculation

          k =-0.0625 0.0625 0.0625 (   153 PWs)   bands (ev):

    -2.8625  20.3128  21.8185  21.8186  24.4939  24.4939

          k =-0.1875 0.1875-0.0625 (   154 PWs)   bands (ev):

    -2.2463  16.7857  19.1712  22.3875  24.7565  25.0643

          k =-0.3125 0.3125-0.1875 (   151 PWs)   bands (ev):

    -0.7237  11.8196  18.3969  21.8428  22.9069  24.4836

          k =-0.4375 0.4375-0.3125 (   149 PWs)   bands (ev):

     1.6613   7.4201  18.4033  20.8648  21.8999  22.5119

          k = 0.4375-0.4375 0.5625 (   153 PWs)   bands (ev):

     3.6806   4.8953  19.1680  19.5855  21.2119  22.6819

          k = 0.3125-0.3125 0.4375 (   148 PWs)   bands (ev):

     0.7742   8.8130  19.0676  20.4365  20.9343  24.2086

          k = 0.1875-0.1875 0.3125 (   150 PWs)   bands (ev):

    -1.3297  13.4342  19.2921  20.7556  23.0738  25.4248

          k = 0.0625-0.0625 0.1875 (   155 PWs)   bands (ev):

    -2.5539  18.5719  20.2441  21.2935  23.8477  25.7719

          k =-0.0625 0.3125 0.0625 (   157 PWs)   bands (ev):

    -1.9396  16.9801  18.7723  19.8813  22.7276  22.9402

          k =-0.1875 0.4375-0.0625 (   152 PWs)   bands (ev):

    -0.7235  13.8124  16.4569  19.6280  20.6115  23.6262

          k =-0.3125 0.5625-0.1875 (   149 PWs)   bands (ev):

     1.3664   9.3382  16.0500  17.3340  20.7227  25.7075

          k = 0.5625-0.3125 0.6875 (   152 PWs)   bands (ev):

     4.2456   5.4683  15.5350  16.7811  21.3397  24.2375

          k = 0.4375-0.1875 0.5625 (   149 PWs)   bands (ev):

     2.2473   7.9546  14.8319  18.0238  22.6524  23.4444

          k = 0.3125-0.0625 0.4375 (   149 PWs)   bands (ev):

    -0.1215  12.1869  15.0013  20.0978  23.1194  24.6756

          k = 0.1875 0.0625 0.3125 (   152 PWs)   bands (ev):

    -1.6341  15.1754  17.7352  21.7679  22.8914  24.5674

          k =-0.0625 0.5625 0.0625 (   151 PWs)   bands (ev):

     0.1783  14.5138  16.0859  16.5452  17.5356  21.0835

          k =-0.1875 0.6875-0.0625 (   147 PWs)   bands (ev):

     1.9538  11.8616  13.3414  14.8377  18.7592  22.1063

          k = 0.6875-0.1875 0.8125 (   149 PWs)   bands (ev):

     4.5364   7.9328  11.5563  14.9152  19.4507  25.8955

          k = 0.5625-0.0625 0.6875 (   148 PWs)   bands (ev):

     4.5474   7.8000  10.6506  15.9404  20.6261  27.4789

          k = 0.4375 0.0625 0.5625 (   148 PWs)   bands (ev):

     1.9546   9.7199  12.5953  17.7677  22.4845  25.0705

          k = 0.3125 0.1875 0.4375 (   150 PWs)   bands (ev):

     0.1779  10.4474  17.1531  20.3161  21.5777  24.7919

          k =-0.0625 0.8125 0.0625 (   150 PWs)   bands (ev):

     3.3976  10.3714  13.1633  15.3160  16.1323  19.8572

          k = 0.8125-0.0625 0.9375 (   147 PWs)   bands (ev):

     5.5694   8.2548  11.1073  13.9621  17.9462  21.3881

          k = 0.6875 0.0625 0.8125 (   149 PWs)   bands (ev):

     6.3762   7.5986   9.2898  14.6381  19.1840  25.6947

          k = 0.5625 0.1875 0.6875 (   151 PWs)   bands (ev):

     4.8094   6.0217  12.9336  16.2097  20.8733  25.7594

          k = 0.4375 0.3125 0.5625 (   153 PWs)   bands (ev):

     2.8285   6.2953  17.3696  18.5356  21.9024  23.0083

          k =-0.0625-0.9375 0.0625 (   150 PWs)   bands (ev):

     5.2934   7.9862  12.8807  15.0708  15.8544  19.5973

          k =-0.1875-0.8125-0.0625 (   148 PWs)   bands (ev):

     3.6845  10.5640  11.4393  14.2396  18.2180  21.6314

          k =-0.3125-0.6875-0.1875 (   149 PWs)   bands (ev):

     2.8277   8.4996  14.1703  15.5121  19.9746  26.2035

          k =-0.0625-0.6875 0.0625 (   147 PWs)   bands (ev):

     1.6603  13.0589  13.7573  15.8068  16.6894  20.3628

          k =-0.1875-0.5625-0.0625 (   148 PWs)   bands (ev):

     0.4768  12.7112  15.3257  16.5732  19.5633  22.7866

          k =-0.0625-0.4375 0.0625 (   152 PWs)   bands (ev):

    -1.0258  15.6224  17.5349  18.5140  19.3863  21.9686

          k =-0.1875 0.1875 0.1875 (   153 PWs)   bands (ev):

    -1.9398  15.0391  20.7781  20.7781  24.3244  25.7474

          k =-0.3125 0.3125 0.0625 (   150 PWs)   bands (ev):

    -1.0262  13.5535  16.2975  22.6264  23.5416  24.7064

          k =-0.4375 0.4375-0.0625 (   148 PWs)   bands (ev):

     0.7742  10.8189  13.6904  20.1062  22.2493  25.2012

          k = 0.4375-0.4375 0.8125 (   151 PWs)   bands (ev):

     3.4060   6.8389  13.7718  18.3255  20.3508  25.5501

          k = 0.3125-0.3125 0.6875 (   147 PWs)   bands (ev):

     3.4049   6.8538  14.8030  17.3103  19.2040  26.5789

          k = 0.1875-0.1875 0.5625 (   147 PWs)   bands (ev):

     0.7743  10.9652  16.6286  17.0493  18.8216  24.6693

          k =-0.1875 0.4375 0.1875 (   150 PWs)   bands (ev):

    -0.4221  12.0695  18.0445  19.4650  20.1461  25.4826

          k =-0.3125 0.5625 0.0625 (   146 PWs)   bands (ev):

     1.0709  11.0871  13.9062  17.0643  22.2078  24.8296

          k = 0.5625-0.3125 0.9375 (   149 PWs)   bands (ev):

     3.4058   8.8933  11.7265  14.9689  23.6111  24.4538

          k = 0.4375-0.1875 0.8125 (   150 PWs)   bands (ev):

     5.3586   6.5800  12.2483  13.7662  22.2966  25.4090

          k = 0.3125-0.0625 0.6875 (   148 PWs)   bands (ev):

     2.5374  10.2558  12.9180  14.3160  21.4443  24.3557

          k =-0.1875 0.6875 0.1875 (   147 PWs)   bands (ev):

     2.2459  10.1239  13.7144  16.3067  17.9714  24.0066

          k = 0.6875-0.1875 1.0625 (   149 PWs)   bands (ev):

     4.2550   9.6761  11.1319  12.8818  20.9187  23.9463

          k = 0.5625-0.0625 0.9375 (   151 PWs)   bands (ev):

     6.9244   8.0355   9.5609  11.3441  23.6306  26.0450

          k = 0.4375 0.0625 0.8125 (   152 PWs)   bands (ev):

     5.1010   8.3387  10.9697  12.5034  23.8675  25.0920

          k =-0.1875-1.0625 0.1875 (   148 PWs)   bands (ev):

     5.8425   8.4213   9.5144  15.5678  17.1041  23.3091

          k =-0.3125-0.9375 0.0625 (   153 PWs)   bands (ev):

     6.1173   8.7045   9.5728  12.5047  20.6526  23.7276

          k =-0.1875-0.8125 0.1875 (   148 PWs)   bands (ev):

     3.9699   9.5153  11.0629  15.8131  17.3955  23.5453

          k =-0.3125 0.3125 0.3125 (   153 PWs)   bands (ev):

    -0.1218  10.1955  20.3311  20.3311  23.4230  23.4233

          k =-0.4375 0.4375 0.1875 (   149 PWs)   bands (ev):

     1.0709   9.0684  15.9037  20.3598  22.4014  23.4377

          k = 0.4375-0.4375 1.0625 (   150 PWs)   bands (ev):

     3.1188   8.6224  11.4992  18.0747  20.1096  27.3792

          k = 0.3125-0.3125 0.9375 (   148 PWs)   bands (ev):

     5.9268   6.9977   9.8197  16.5658  18.3898  28.0243

          k =-0.3125 0.5625 0.3125 (   148 PWs)   bands (ev):

     1.9549   7.6951  17.6877  18.0607  19.9521  25.2595

          k = 0.5625-0.3125 1.1875 (   151 PWs)   bands (ev):

     3.6916   7.1167  13.9077  15.3104  22.7438  23.9517

          k = 0.4375-0.1875 1.0625 (   151 PWs)   bands (ev):

     6.1946   7.2685  10.0496  13.3950  22.0533  27.0147

          k =-0.3125-1.1875 0.3125 (   154 PWs)   bands (ev):

     5.0781   6.3135  12.1265  16.8118  18.6667  28.1417

          k =-0.4375 0.4375 0.4375 (   147 PWs)   bands (ev):

     2.5391   6.0160  20.5981  20.5981  21.6555  21.6555

          k = 0.4375-0.4375 1.3125 (   154 PWs)   bands (ev):

     3.9643   5.1815  16.4014  18.8279  20.7864  23.9806

     the Fermi energy is     8.8671 ev

!    total energy              =      -4.18868151 Ry
     estimated scf accuracy    <       0.00000033 Ry
     smearing contrib. (-TS)   =       0.00011407 Ry
     internal energy E=F+TS    =      -4.18879558 Ry

     The total energy is F=E-TS. E is the sum of the following terms:
     one-electron contribution =       3.07903898 Ry
     hartree contribution      =       0.01101820 Ry
     xc contribution           =      -1.66535149 Ry
     ewald contribution        =      -5.61350128 Ry

     convergence has been achieved in   3 iterations

     Writing all to output data dir ./tmp/Al.save/

     init_run     :      0.22s CPU      0.22s WALL (       1 calls)
     electrons    :      0.25s CPU      0.29s WALL (       1 calls)

     Called by init_run:
     wfcinit      :      0.05s CPU      0.05s WALL (       1 calls)
     potinit      :      0.02s CPU      0.02s WALL (       1 calls)
     hinit0       :      0.15s CPU      0.15s WALL (       1 calls)

     Called by electrons:
     c_bands      :      0.21s CPU      0.24s WALL (       4 calls)
     sum_band     :      0.04s CPU      0.04s WALL (       4 calls)
     v_of_rho     :      0.00s CPU      0.00s WALL (       4 calls)
     mix_rho      :      0.00s CPU      0.00s WALL (       4 calls)

     Called by c_bands:
     init_us_2    :      0.01s CPU      0.01s WALL (     540 calls)
     init_us_2:cp :      0.01s CPU      0.01s WALL (     540 calls)
     cegterg      :      0.20s CPU      0.23s WALL (     240 calls)

     Called by *egterg:
     cdiaghg      :      0.03s CPU      0.03s WALL (     655 calls)
     h_psi        :      0.16s CPU      0.18s WALL (     775 calls)
     g_psi        :      0.00s CPU      0.00s WALL (     475 calls)

     Called by h_psi:
     h_psi:calbec :      0.01s CPU      0.01s WALL (     775 calls)
     vloc_psi     :      0.15s CPU      0.17s WALL (     775 calls)
     add_vuspsi   :      0.01s CPU      0.01s WALL (     775 calls)

     General routines
     calbec       :      0.01s CPU      0.01s WALL (     775 calls)
     fft          :      0.14s CPU      0.14s WALL (      18 calls)
     ffts         :      0.02s CPU      0.02s WALL (       8 calls)
     fftw         :      0.11s CPU      0.12s WALL (    9324 calls)
     interpolate  :      0.02s CPU      0.02s WALL (       4 calls)

     Parallel routines

     PWSCF        :      0.50s CPU      0.54s WALL


   This run was terminated on:  16:38:50   2Jun2023            

=------------------------------------------------------------------------------=
   JOB DONE.
=------------------------------------------------------------------------------=
