### Running on host: ip-172-31-10-78

     Program PWSCF v.7.2 starts on  2Jun2023 at 16:38:56 

     This program is part of the open-source Quantum ESPRESSO suite
     for quantum simulation of materials; please cite
         "P. Giannozzi et al., J. Phys.:Condens. Matter 21 395502 (2009);
         "P. Giannozzi et al., J. Phys.:Condens. Matter 29 465901 (2017);
         "P. Giannozzi et al., J. Chem. Phys. 152 154105 (2020);
          URL http://www.quantum-espresso.org", 
     in publications or presentations arising from this work. More details at
     http://www.quantum-espresso.org/quote

     Parallel version (MPI), running on     1 processors

     MPI processes distributed on     1 nodes
     377 MiB available memory on the printing compute node when the environment starts

     Reading input from eos.Al.d/eos.Al.13.in

     Current dimensions of program PWSCF are:
     Max number of different atomic species (ntypx) = 10
     Max number of k-points (npk) =  40000
     Max angular momentum in pseudopotentials (lmaxx) =  4
     Message from routine setup:
     no reason to have ecutrho>4*ecutwfc

     Subspace diagonalization in iterative solution of the eigenvalue problem:
     a serial algorithm will be used


     G-vector sticks info
     --------------------
     sticks:   dense  smooth     PW     G-vecs:    dense   smooth      PW
     Sum         313     163     61                 3839     1363     331

     Using Slab Decomposition



     bravais-lattice index     =            2
     lattice parameter (alat)  =       7.6927  a.u.
     unit-cell volume          =     113.8091 (a.u.)^3
     number of atoms/cell      =            1
     number of atomic types    =            1
     number of electrons       =         3.00
     number of Kohn-Sham states=            6
     kinetic-energy cutoff     =      20.0000  Ry
     charge density cutoff     =     160.0000  Ry
     scf convergence threshold =      1.0E-06
     mixing beta               =       0.7000
     number of iterations used =            8  plain     mixing
     Exchange-correlation=  SLA  PZ   NOGX NOGC
                           (   1   1   0   0   0   0   0)

     celldm(1)=   7.692704  celldm(2)=   0.000000  celldm(3)=   0.000000
     celldm(4)=   0.000000  celldm(5)=   0.000000  celldm(6)=   0.000000

     crystal axes: (cart. coord. in units of alat)
               a(1) = (  -0.500000   0.000000   0.500000 )  
               a(2) = (   0.000000   0.500000   0.500000 )  
               a(3) = (  -0.500000   0.500000   0.000000 )  

     reciprocal axes: (cart. coord. in units 2 pi/alat)
               b(1) = ( -1.000000 -1.000000  1.000000 )  
               b(2) = (  1.000000  1.000000  1.000000 )  
               b(3) = ( -1.000000  1.000000 -1.000000 )  


     PseudoPot. # 1 for Al read from file:
     ./Al.pz-vbc.UPF
     MD5 check sum: c34c8b369e81ee50c191f4345b5f621b
     Pseudo is Norm-conserving, Zval =  3.0
     Generated by new atomic code, or converted to UPF format
     Using radial grid of  171 points,  2 beta functions with: 
                l(1) =   0
                l(2) =   1

     atomic species   valence    mass     pseudopotential
        Al             3.00    26.98000     Al( 1.00)

     48 Sym. Ops., with inversion, found



   Cartesian axes

     site n.     atom                  positions (alat units)
         1           Al  tau(   1) = (   0.0000000   0.0000000   0.0000000  )

     number of k points=    60  Marzari-Vanderbilt smearing, width (Ry)=  0.0200
                       cart. coord. in units 2pi/alat
        k(    1) = (  -0.0625000   0.0625000   0.0625000), wk =   0.0078125
        k(    2) = (  -0.1875000   0.1875000  -0.0625000), wk =   0.0234375
        k(    3) = (  -0.3125000   0.3125000  -0.1875000), wk =   0.0234375
        k(    4) = (  -0.4375000   0.4375000  -0.3125000), wk =   0.0234375
        k(    5) = (   0.4375000  -0.4375000   0.5625000), wk =   0.0234375
        k(    6) = (   0.3125000  -0.3125000   0.4375000), wk =   0.0234375
        k(    7) = (   0.1875000  -0.1875000   0.3125000), wk =   0.0234375
        k(    8) = (   0.0625000  -0.0625000   0.1875000), wk =   0.0234375
        k(    9) = (  -0.0625000   0.3125000   0.0625000), wk =   0.0234375
        k(   10) = (  -0.1875000   0.4375000  -0.0625000), wk =   0.0468750
        k(   11) = (  -0.3125000   0.5625000  -0.1875000), wk =   0.0468750
        k(   12) = (   0.5625000  -0.3125000   0.6875000), wk =   0.0468750
        k(   13) = (   0.4375000  -0.1875000   0.5625000), wk =   0.0468750
        k(   14) = (   0.3125000  -0.0625000   0.4375000), wk =   0.0468750
        k(   15) = (   0.1875000   0.0625000   0.3125000), wk =   0.0468750
        k(   16) = (  -0.0625000   0.5625000   0.0625000), wk =   0.0234375
        k(   17) = (  -0.1875000   0.6875000  -0.0625000), wk =   0.0468750
        k(   18) = (   0.6875000  -0.1875000   0.8125000), wk =   0.0468750
        k(   19) = (   0.5625000  -0.0625000   0.6875000), wk =   0.0468750
        k(   20) = (   0.4375000   0.0625000   0.5625000), wk =   0.0468750
        k(   21) = (   0.3125000   0.1875000   0.4375000), wk =   0.0468750
        k(   22) = (  -0.0625000   0.8125000   0.0625000), wk =   0.0234375
        k(   23) = (   0.8125000  -0.0625000   0.9375000), wk =   0.0468750
        k(   24) = (   0.6875000   0.0625000   0.8125000), wk =   0.0468750
        k(   25) = (   0.5625000   0.1875000   0.6875000), wk =   0.0468750
        k(   26) = (   0.4375000   0.3125000   0.5625000), wk =   0.0468750
        k(   27) = (  -0.0625000  -0.9375000   0.0625000), wk =   0.0234375
        k(   28) = (  -0.1875000  -0.8125000  -0.0625000), wk =   0.0468750
        k(   29) = (  -0.3125000  -0.6875000  -0.1875000), wk =   0.0468750
        k(   30) = (  -0.0625000  -0.6875000   0.0625000), wk =   0.0234375
        k(   31) = (  -0.1875000  -0.5625000  -0.0625000), wk =   0.0468750
        k(   32) = (  -0.0625000  -0.4375000   0.0625000), wk =   0.0234375
        k(   33) = (  -0.1875000   0.1875000   0.1875000), wk =   0.0078125
        k(   34) = (  -0.3125000   0.3125000   0.0625000), wk =   0.0234375
        k(   35) = (  -0.4375000   0.4375000  -0.0625000), wk =   0.0234375
        k(   36) = (   0.4375000  -0.4375000   0.8125000), wk =   0.0234375
        k(   37) = (   0.3125000  -0.3125000   0.6875000), wk =   0.0234375
        k(   38) = (   0.1875000  -0.1875000   0.5625000), wk =   0.0234375
        k(   39) = (  -0.1875000   0.4375000   0.1875000), wk =   0.0234375
        k(   40) = (  -0.3125000   0.5625000   0.0625000), wk =   0.0468750
        k(   41) = (   0.5625000  -0.3125000   0.9375000), wk =   0.0468750
        k(   42) = (   0.4375000  -0.1875000   0.8125000), wk =   0.0468750
        k(   43) = (   0.3125000  -0.0625000   0.6875000), wk =   0.0468750
        k(   44) = (  -0.1875000   0.6875000   0.1875000), wk =   0.0234375
        k(   45) = (   0.6875000  -0.1875000   1.0625000), wk =   0.0468750
        k(   46) = (   0.5625000  -0.0625000   0.9375000), wk =   0.0468750
        k(   47) = (   0.4375000   0.0625000   0.8125000), wk =   0.0468750
        k(   48) = (  -0.1875000  -1.0625000   0.1875000), wk =   0.0234375
        k(   49) = (  -0.3125000  -0.9375000   0.0625000), wk =   0.0468750
        k(   50) = (  -0.1875000  -0.8125000   0.1875000), wk =   0.0234375
        k(   51) = (  -0.3125000   0.3125000   0.3125000), wk =   0.0078125
        k(   52) = (  -0.4375000   0.4375000   0.1875000), wk =   0.0234375
        k(   53) = (   0.4375000  -0.4375000   1.0625000), wk =   0.0234375
        k(   54) = (   0.3125000  -0.3125000   0.9375000), wk =   0.0234375
        k(   55) = (  -0.3125000   0.5625000   0.3125000), wk =   0.0234375
        k(   56) = (   0.5625000  -0.3125000   1.1875000), wk =   0.0468750
        k(   57) = (   0.4375000  -0.1875000   1.0625000), wk =   0.0468750
        k(   58) = (  -0.3125000  -1.1875000   0.3125000), wk =   0.0234375
        k(   59) = (  -0.4375000   0.4375000   0.4375000), wk =   0.0078125
        k(   60) = (   0.4375000  -0.4375000   1.3125000), wk =   0.0234375

     Dense  grid:     3839 G-vectors     FFT dimensions: (  24,  24,  24)

     Smooth grid:     1363 G-vectors     FFT dimensions: (  15,  15,  15)

     Estimated max dynamical RAM per process >       3.65 MB

     Initial potential from superposition of free atoms

     starting charge       2.9979, renormalised to       3.0000

     negative rho (up, down):  5.322E-05 0.000E+00
     Starting wfcs are    9 randomized atomic wfcs

     total cpu time spent up to now is        0.2 secs

     Self-consistent Calculation

     iteration #  1     ecut=    20.00 Ry     beta= 0.70
     Davidson diagonalization with overlap
     ethr =  1.00E-02,  avg # of iterations =  2.7

     Threshold (ethr) on eigenvalues was too large:
     Diagonalizing with lowered threshold

     Davidson diagonalization with overlap
     ethr =  1.92E-04,  avg # of iterations =  2.0

     negative rho (up, down):  1.520E-05 0.000E+00

     total cpu time spent up to now is        0.4 secs

     total energy              =      -4.18738158 Ry
     estimated scf accuracy    <       0.00572940 Ry

     iteration #  2     ecut=    20.00 Ry     beta= 0.70
     Davidson diagonalization with overlap
     ethr =  1.91E-04,  avg # of iterations =  1.0

     negative rho (up, down):  6.755E-06 0.000E+00

     total cpu time spent up to now is        0.5 secs

     total energy              =      -4.18741950 Ry
     estimated scf accuracy    <       0.00042459 Ry

     iteration #  3     ecut=    20.00 Ry     beta= 0.70
     Davidson diagonalization with overlap
     ethr =  1.42E-05,  avg # of iterations =  1.9

     total cpu time spent up to now is        0.6 secs

     End of self-consistent calculation

          k =-0.0625 0.0625 0.0625 (   169 PWs)   bands (ev):

    -3.3382  18.0561  19.4553  19.4554  21.4844  21.4845

          k =-0.1875 0.1875-0.0625 (   170 PWs)   bands (ev):

    -2.7757  14.8023  16.8661  19.9377  21.6704  22.2013

          k =-0.3125 0.3125-0.1875 (   166 PWs)   bands (ev):

    -1.3830  10.1868  16.1533  19.2416  20.4129  21.8115

          k =-0.4375 0.4375-0.3125 (   167 PWs)   bands (ev):

     0.8078   6.1090  16.1658  18.3479  19.4663  19.9541

          k = 0.4375-0.4375 0.5625 (   170 PWs)   bands (ev):

     2.6897   3.7531  16.8916  17.2204  18.7311  20.1245

          k = 0.3125-0.3125 0.4375 (   169 PWs)   bands (ev):

    -0.0088   7.3990  16.7473  18.1152  18.4316  21.5223

          k = 0.1875-0.1875 0.3125 (   166 PWs)   bands (ev):

    -1.9378  11.6824  16.9666  18.3666  20.4360  22.5507

          k = 0.0625-0.0625 0.1875 (   169 PWs)   bands (ev):

    -3.0565  16.4480  17.8810  19.0142  20.7677  22.8714

          k =-0.0625 0.3125 0.0625 (   167 PWs)   bands (ev):

    -2.4955  14.9927  16.4887  17.7230  19.7053  20.5456

          k =-0.1875 0.4375-0.0625 (   167 PWs)   bands (ev):

    -1.3826  12.0739  14.3478  17.3001  18.3033  20.7702

          k =-0.3125 0.5625-0.1875 (   172 PWs)   bands (ev):

     0.5364   7.8948  14.0502  15.1199  18.2995  22.8539

          k = 0.5625-0.3125 0.6875 (   171 PWs)   bands (ev):

     3.2186   4.2796  13.6155  14.5609  18.8411  21.5521

          k = 0.4375-0.1875 0.5625 (   172 PWs)   bands (ev):

     1.3486   6.6109  12.8927  15.7682  20.0118  20.8814

          k = 0.3125-0.0625 0.4375 (   170 PWs)   bands (ev):

    -0.8309  10.5713  12.9909  17.6834  20.6040  21.8923

          k = 0.1875 0.0625 0.3125 (   167 PWs)   bands (ev):

    -2.2163  13.3245  15.5245  19.3563  20.1969  21.8036

          k =-0.0625 0.5625 0.0625 (   173 PWs)   bands (ev):

    -0.5556  12.7530  14.1445  14.3950  15.4912  18.2602

          k =-0.1875 0.6875-0.0625 (   175 PWs)   bands (ev):

     1.0778  10.3000  11.6271  12.6952  16.5985  19.3075

          k = 0.6875-0.1875 0.8125 (   177 PWs)   bands (ev):

     3.4730   6.6043   9.8869  12.8597  17.1330  22.9355

          k = 0.5625-0.0625 0.6875 (   174 PWs)   bands (ev):

     3.4830   6.5043   8.9886  13.8306  18.1894  24.5656

          k = 0.4375 0.0625 0.5625 (   170 PWs)   bands (ev):

     1.0788   8.2899  10.7771  15.5312  19.8860  22.4009

          k = 0.3125 0.1875 0.4375 (   169 PWs)   bands (ev):

    -0.5562   8.9187  15.0125  17.9018  19.1118  22.0489

          k =-0.0625 0.8125 0.0625 (   172 PWs)   bands (ev):

     2.4134   8.8420  11.5016  13.2370  14.2047  17.1198

          k = 0.8125-0.0625 0.9375 (   176 PWs)   bands (ev):

     4.4461   6.8642   9.5570  11.9462  15.8467  18.6357

          k = 0.6875 0.0625 0.8125 (   177 PWs)   bands (ev):

     5.2149   6.3359   7.6942  12.6131  16.8886  22.7529

          k = 0.5625 0.1875 0.6875 (   174 PWs)   bands (ev):

     3.7460   4.7934  11.1557  14.0737  18.4154  22.9554

          k = 0.4375 0.3125 0.5625 (   169 PWs)   bands (ev):

     1.8869   5.0660  15.2562  16.2349  19.3517  20.4379

          k =-0.0625-0.9375 0.0625 (   180 PWs)   bands (ev):

     4.1880   6.6010  11.2472  13.0052  13.9454  16.8810

          k =-0.1875-0.8125-0.0625 (   174 PWs)   bands (ev):

     2.6792   9.0805   9.8247  12.1932  16.0981  18.8626

          k =-0.3125-0.6875-0.1875 (   172 PWs)   bands (ev):

     1.8855   7.1226  12.3811  13.3589  17.6126  23.2186

          k =-0.0625-0.6875 0.0625 (   171 PWs)   bands (ev):

     0.8076  11.3717  12.0149  13.6997  14.7212  17.5863

          k =-0.1875-0.5625-0.0625 (   170 PWs)   bands (ev):

    -0.2815  11.0651  13.3752  14.4111  17.3401  19.9523

          k =-0.0625-0.4375 0.0625 (   168 PWs)   bands (ev):

    -1.6595  13.7557  15.3246  16.4992  17.0821  19.1194

          k =-0.1875 0.1875 0.1875 (   171 PWs)   bands (ev):

    -2.4957  13.1649  18.3601  18.3601  21.5829  22.7847

          k =-0.3125 0.3125 0.0625 (   166 PWs)   bands (ev):

    -1.6598  11.8310  14.1857  19.8611  21.1455  21.9867

          k =-0.4375 0.4375-0.0625 (   172 PWs)   bands (ev):

    -0.0084   9.3063  11.7779  17.6758  19.6981  22.5463

          k = 0.4375-0.4375 0.8125 (   172 PWs)   bands (ev):

     2.4223   5.5738  11.9113  16.0448  17.9358  22.7836

          k = 0.3125-0.3125 0.6875 (   172 PWs)   bands (ev):

     2.4208   5.5850  12.8948  15.1056  16.8732  23.7105

          k = 0.1875-0.1875 0.5625 (   171 PWs)   bands (ev):

    -0.0083   9.4094  14.6311  14.8663  16.5217  21.7889

          k =-0.1875 0.4375 0.1875 (   167 PWs)   bands (ev):

    -1.1064  10.4250  15.7990  17.4410  17.5350  22.5523

          k =-0.3125 0.5625 0.0625 (   173 PWs)   bands (ev):

     0.2645   9.5578  12.0043  14.8801  19.7591  21.8906

          k = 0.5625-0.3125 0.9375 (   173 PWs)   bands (ev):

     2.4207   7.5248  10.0077  12.9119  20.8917  21.8497

          k = 0.4375-0.1875 0.8125 (   172 PWs)   bands (ev):

     4.2597   5.3160  10.6209  11.7037  19.7388  22.6230

          k = 0.3125-0.0625 0.6875 (   173 PWs)   bands (ev):

     1.6170   8.7945  11.2213  12.2057  19.0576  21.4375

          k =-0.1875 0.6875 0.1875 (   173 PWs)   bands (ev):

     1.3477   8.6416  11.8991  14.1676  15.7745  21.1657

          k = 0.6875-0.1875 1.0625 (   175 PWs)   bands (ev):

     3.2091   8.2783   9.5987  10.8201  18.5742  21.0542

          k = 0.5625-0.0625 0.9375 (   171 PWs)   bands (ev):

     5.7274   6.7525   8.1567   9.3309  21.0407  23.0301

          k = 0.4375 0.0625 0.8125 (   175 PWs)   bands (ev):

     3.9993   7.0134   9.4503  10.4748  21.2356  22.2977

          k =-0.1875-1.0625 0.1875 (   175 PWs)   bands (ev):

     4.7036   7.1051   7.9208  13.4709  14.9982  20.5134

          k =-0.3125-0.9375 0.0625 (   173 PWs)   bands (ev):

     4.9607   7.3683   8.0647  10.5428  18.3296  20.8513

          k =-0.1875-0.8125 0.1875 (   174 PWs)   bands (ev):

     2.9445   8.1180   9.3880  13.7027  15.2597  20.7337

          k =-0.3125 0.3125 0.3125 (   168 PWs)   bands (ev):

    -0.8313   8.6788  17.9134  17.9134  20.8088  20.8090

          k =-0.4375 0.4375 0.1875 (   168 PWs)   bands (ev):

     0.2643   7.6420  13.8653  17.9084  19.8432  20.8729

          k = 0.4375-0.4375 1.0625 (   173 PWs)   bands (ev):

     2.1548   7.2706   9.7634  15.8095  17.7156  24.4873

          k = 0.3125-0.3125 0.9375 (   177 PWs)   bands (ev):

     4.7905   5.7397   8.2102  14.4047  16.1417  24.9235

          k =-0.3125 0.5625 0.3125 (   170 PWs)   bands (ev):

     1.0784   6.3653  15.5786  15.8086  17.5408  22.4921

          k = 0.5625-0.3125 1.1875 (   170 PWs)   bands (ev):

     2.6875   5.8334  12.1292  13.1713  20.1266  21.3054

          k = 0.4375-0.1875 1.0625 (   175 PWs)   bands (ev):

     5.0409   5.9958   8.4624  11.4317  19.5191  24.0992

          k =-0.3125-1.1875 0.3125 (   176 PWs)   bands (ev):

     3.9977   5.0655  10.4001  14.6378  16.3908  25.0167

          k =-0.4375 0.4375 0.4375 (   168 PWs)   bands (ev):

     1.6182   4.8063  18.1326  18.1326  19.2024  19.2024

          k = 0.4375-0.4375 1.3125 (   168 PWs)   bands (ev):

     2.9555   4.0158  14.3507  16.5155  18.3351  21.3276

     the Fermi energy is     7.4870 ev

!    total energy              =      -4.18742655 Ry
     estimated scf accuracy    <       0.00000040 Ry
     smearing contrib. (-TS)   =       0.00002450 Ry
     internal energy E=F+TS    =      -4.18745105 Ry

     The total energy is F=E-TS. E is the sum of the following terms:
     one-electron contribution =       2.76500173 Ry
     hartree contribution      =       0.00864768 Ry
     xc contribution           =      -1.59708812 Ry
     ewald contribution        =      -5.36401234 Ry

     convergence has been achieved in   3 iterations

     Writing all to output data dir ./tmp/Al.save/

     init_run     :      0.22s CPU      0.22s WALL (       1 calls)
     electrons    :      0.31s CPU      0.32s WALL (       1 calls)

     Called by init_run:
     wfcinit      :      0.05s CPU      0.05s WALL (       1 calls)
     potinit      :      0.02s CPU      0.02s WALL (       1 calls)
     hinit0       :      0.14s CPU      0.14s WALL (       1 calls)

     Called by electrons:
     c_bands      :      0.26s CPU      0.26s WALL (       4 calls)
     sum_band     :      0.05s CPU      0.05s WALL (       4 calls)
     v_of_rho     :      0.00s CPU      0.00s WALL (       4 calls)
     mix_rho      :      0.00s CPU      0.00s WALL (       4 calls)

     Called by c_bands:
     init_us_2    :      0.01s CPU      0.01s WALL (     540 calls)
     init_us_2:cp :      0.01s CPU      0.01s WALL (     540 calls)
     cegterg      :      0.24s CPU      0.25s WALL (     240 calls)

     Called by *egterg:
     cdiaghg      :      0.03s CPU      0.03s WALL (     641 calls)
     h_psi        :      0.19s CPU      0.20s WALL (     761 calls)
     g_psi        :      0.00s CPU      0.00s WALL (     461 calls)

     Called by h_psi:
     h_psi:calbec :      0.01s CPU      0.01s WALL (     761 calls)
     vloc_psi     :      0.16s CPU      0.17s WALL (     761 calls)
     add_vuspsi   :      0.01s CPU      0.01s WALL (     761 calls)

     General routines
     calbec       :      0.01s CPU      0.01s WALL (     761 calls)
     fft          :      0.14s CPU      0.14s WALL (      18 calls)
     ffts         :      0.02s CPU      0.02s WALL (       8 calls)
     fftw         :      0.12s CPU      0.13s WALL (    9244 calls)
     interpolate  :      0.02s CPU      0.02s WALL (       4 calls)

     Parallel routines

     PWSCF        :      0.54s CPU      0.56s WALL


   This run was terminated on:  16:38:57   2Jun2023            

=------------------------------------------------------------------------------=
   JOB DONE.
=------------------------------------------------------------------------------=
