### Running on host: ip-172-31-10-78

     Program PWSCF v.7.2 starts on  2Jun2023 at 16:38:55 

     This program is part of the open-source Quantum ESPRESSO suite
     for quantum simulation of materials; please cite
         "P. Giannozzi et al., J. Phys.:Condens. Matter 21 395502 (2009);
         "P. Giannozzi et al., J. Phys.:Condens. Matter 29 465901 (2017);
         "P. Giannozzi et al., J. Chem. Phys. 152 154105 (2020);
          URL http://www.quantum-espresso.org", 
     in publications or presentations arising from this work. More details at
     http://www.quantum-espresso.org/quote

     Parallel version (MPI), running on     1 processors

     MPI processes distributed on     1 nodes
     377 MiB available memory on the printing compute node when the environment starts

     Reading input from eos.Al.d/eos.Al.11.in

     Current dimensions of program PWSCF are:
     Max number of different atomic species (ntypx) = 10
     Max number of k-points (npk) =  40000
     Max angular momentum in pseudopotentials (lmaxx) =  4
     Message from routine setup:
     no reason to have ecutrho>4*ecutwfc

     Subspace diagonalization in iterative solution of the eigenvalue problem:
     a serial algorithm will be used


     G-vector sticks info
     --------------------
     sticks:   dense  smooth     PW     G-vecs:    dense   smooth      PW
     Sum         313     163     61                 3719     1363     331

     Using Slab Decomposition



     bravais-lattice index     =            2
     lattice parameter (alat)  =       7.6072  a.u.
     unit-cell volume          =     110.0575 (a.u.)^3
     number of atoms/cell      =            1
     number of atomic types    =            1
     number of electrons       =         3.00
     number of Kohn-Sham states=            6
     kinetic-energy cutoff     =      20.0000  Ry
     charge density cutoff     =     160.0000  Ry
     scf convergence threshold =      1.0E-06
     mixing beta               =       0.7000
     number of iterations used =            8  plain     mixing
     Exchange-correlation=  SLA  PZ   NOGX NOGC
                           (   1   1   0   0   0   0   0)

     celldm(1)=   7.607230  celldm(2)=   0.000000  celldm(3)=   0.000000
     celldm(4)=   0.000000  celldm(5)=   0.000000  celldm(6)=   0.000000

     crystal axes: (cart. coord. in units of alat)
               a(1) = (  -0.500000   0.000000   0.500000 )  
               a(2) = (   0.000000   0.500000   0.500000 )  
               a(3) = (  -0.500000   0.500000   0.000000 )  

     reciprocal axes: (cart. coord. in units 2 pi/alat)
               b(1) = ( -1.000000 -1.000000  1.000000 )  
               b(2) = (  1.000000  1.000000  1.000000 )  
               b(3) = ( -1.000000  1.000000 -1.000000 )  


     PseudoPot. # 1 for Al read from file:
     ./Al.pz-vbc.UPF
     MD5 check sum: c34c8b369e81ee50c191f4345b5f621b
     Pseudo is Norm-conserving, Zval =  3.0
     Generated by new atomic code, or converted to UPF format
     Using radial grid of  171 points,  2 beta functions with: 
                l(1) =   0
                l(2) =   1

     atomic species   valence    mass     pseudopotential
        Al             3.00    26.98000     Al( 1.00)

     48 Sym. Ops., with inversion, found



   Cartesian axes

     site n.     atom                  positions (alat units)
         1           Al  tau(   1) = (   0.0000000   0.0000000   0.0000000  )

     number of k points=    60  Marzari-Vanderbilt smearing, width (Ry)=  0.0200
                       cart. coord. in units 2pi/alat
        k(    1) = (  -0.0625000   0.0625000   0.0625000), wk =   0.0078125
        k(    2) = (  -0.1875000   0.1875000  -0.0625000), wk =   0.0234375
        k(    3) = (  -0.3125000   0.3125000  -0.1875000), wk =   0.0234375
        k(    4) = (  -0.4375000   0.4375000  -0.3125000), wk =   0.0234375
        k(    5) = (   0.4375000  -0.4375000   0.5625000), wk =   0.0234375
        k(    6) = (   0.3125000  -0.3125000   0.4375000), wk =   0.0234375
        k(    7) = (   0.1875000  -0.1875000   0.3125000), wk =   0.0234375
        k(    8) = (   0.0625000  -0.0625000   0.1875000), wk =   0.0234375
        k(    9) = (  -0.0625000   0.3125000   0.0625000), wk =   0.0234375
        k(   10) = (  -0.1875000   0.4375000  -0.0625000), wk =   0.0468750
        k(   11) = (  -0.3125000   0.5625000  -0.1875000), wk =   0.0468750
        k(   12) = (   0.5625000  -0.3125000   0.6875000), wk =   0.0468750
        k(   13) = (   0.4375000  -0.1875000   0.5625000), wk =   0.0468750
        k(   14) = (   0.3125000  -0.0625000   0.4375000), wk =   0.0468750
        k(   15) = (   0.1875000   0.0625000   0.3125000), wk =   0.0468750
        k(   16) = (  -0.0625000   0.5625000   0.0625000), wk =   0.0234375
        k(   17) = (  -0.1875000   0.6875000  -0.0625000), wk =   0.0468750
        k(   18) = (   0.6875000  -0.1875000   0.8125000), wk =   0.0468750
        k(   19) = (   0.5625000  -0.0625000   0.6875000), wk =   0.0468750
        k(   20) = (   0.4375000   0.0625000   0.5625000), wk =   0.0468750
        k(   21) = (   0.3125000   0.1875000   0.4375000), wk =   0.0468750
        k(   22) = (  -0.0625000   0.8125000   0.0625000), wk =   0.0234375
        k(   23) = (   0.8125000  -0.0625000   0.9375000), wk =   0.0468750
        k(   24) = (   0.6875000   0.0625000   0.8125000), wk =   0.0468750
        k(   25) = (   0.5625000   0.1875000   0.6875000), wk =   0.0468750
        k(   26) = (   0.4375000   0.3125000   0.5625000), wk =   0.0468750
        k(   27) = (  -0.0625000  -0.9375000   0.0625000), wk =   0.0234375
        k(   28) = (  -0.1875000  -0.8125000  -0.0625000), wk =   0.0468750
        k(   29) = (  -0.3125000  -0.6875000  -0.1875000), wk =   0.0468750
        k(   30) = (  -0.0625000  -0.6875000   0.0625000), wk =   0.0234375
        k(   31) = (  -0.1875000  -0.5625000  -0.0625000), wk =   0.0468750
        k(   32) = (  -0.0625000  -0.4375000   0.0625000), wk =   0.0234375
        k(   33) = (  -0.1875000   0.1875000   0.1875000), wk =   0.0078125
        k(   34) = (  -0.3125000   0.3125000   0.0625000), wk =   0.0234375
        k(   35) = (  -0.4375000   0.4375000  -0.0625000), wk =   0.0234375
        k(   36) = (   0.4375000  -0.4375000   0.8125000), wk =   0.0234375
        k(   37) = (   0.3125000  -0.3125000   0.6875000), wk =   0.0234375
        k(   38) = (   0.1875000  -0.1875000   0.5625000), wk =   0.0234375
        k(   39) = (  -0.1875000   0.4375000   0.1875000), wk =   0.0234375
        k(   40) = (  -0.3125000   0.5625000   0.0625000), wk =   0.0468750
        k(   41) = (   0.5625000  -0.3125000   0.9375000), wk =   0.0468750
        k(   42) = (   0.4375000  -0.1875000   0.8125000), wk =   0.0468750
        k(   43) = (   0.3125000  -0.0625000   0.6875000), wk =   0.0468750
        k(   44) = (  -0.1875000   0.6875000   0.1875000), wk =   0.0234375
        k(   45) = (   0.6875000  -0.1875000   1.0625000), wk =   0.0468750
        k(   46) = (   0.5625000  -0.0625000   0.9375000), wk =   0.0468750
        k(   47) = (   0.4375000   0.0625000   0.8125000), wk =   0.0468750
        k(   48) = (  -0.1875000  -1.0625000   0.1875000), wk =   0.0234375
        k(   49) = (  -0.3125000  -0.9375000   0.0625000), wk =   0.0468750
        k(   50) = (  -0.1875000  -0.8125000   0.1875000), wk =   0.0234375
        k(   51) = (  -0.3125000   0.3125000   0.3125000), wk =   0.0078125
        k(   52) = (  -0.4375000   0.4375000   0.1875000), wk =   0.0234375
        k(   53) = (   0.4375000  -0.4375000   1.0625000), wk =   0.0234375
        k(   54) = (   0.3125000  -0.3125000   0.9375000), wk =   0.0234375
        k(   55) = (  -0.3125000   0.5625000   0.3125000), wk =   0.0234375
        k(   56) = (   0.5625000  -0.3125000   1.1875000), wk =   0.0468750
        k(   57) = (   0.4375000  -0.1875000   1.0625000), wk =   0.0468750
        k(   58) = (  -0.3125000  -1.1875000   0.3125000), wk =   0.0234375
        k(   59) = (  -0.4375000   0.4375000   0.4375000), wk =   0.0078125
        k(   60) = (   0.4375000  -0.4375000   1.3125000), wk =   0.0234375

     Dense  grid:     3719 G-vectors     FFT dimensions: (  24,  24,  24)

     Smooth grid:     1363 G-vectors     FFT dimensions: (  15,  15,  15)

     Estimated max dynamical RAM per process >       3.57 MB

     Initial potential from superposition of free atoms

     starting charge       2.9979, renormalised to       3.0000

     negative rho (up, down):  5.563E-05 0.000E+00
     Starting wfcs are    9 randomized atomic wfcs

     total cpu time spent up to now is        0.3 secs

     Self-consistent Calculation

     iteration #  1     ecut=    20.00 Ry     beta= 0.70
     Davidson diagonalization with overlap
     ethr =  1.00E-02,  avg # of iterations =  2.8

     Threshold (ethr) on eigenvalues was too large:
     Diagonalizing with lowered threshold

     Davidson diagonalization with overlap
     ethr =  1.94E-04,  avg # of iterations =  2.0

     negative rho (up, down):  1.598E-05 0.000E+00

     total cpu time spent up to now is        0.4 secs

     total energy              =      -4.18864745 Ry
     estimated scf accuracy    <       0.00577778 Ry

     iteration #  2     ecut=    20.00 Ry     beta= 0.70
     Davidson diagonalization with overlap
     ethr =  1.93E-04,  avg # of iterations =  1.0

     negative rho (up, down):  7.475E-06 0.000E+00

     total cpu time spent up to now is        0.5 secs

     total energy              =      -4.18868547 Ry
     estimated scf accuracy    <       0.00043482 Ry

     iteration #  3     ecut=    20.00 Ry     beta= 0.70
     Davidson diagonalization with overlap
     ethr =  1.45E-05,  avg # of iterations =  2.0

     total cpu time spent up to now is        0.6 secs

     End of self-consistent calculation

          k =-0.0625 0.0625 0.0625 (   169 PWs)   bands (ev):

    -3.2278  18.5971  20.0245  20.0246  22.1887  22.1888

          k =-0.1875 0.1875-0.0625 (   167 PWs)   bands (ev):

    -2.6526  15.2766  17.4157  20.5319  22.3859  22.8817

          k =-0.3125 0.3125-0.1875 (   161 PWs)   bands (ev):

    -1.2287  10.5749  16.6892  19.8769  20.9890  22.4469

          k =-0.4375 0.4375-0.3125 (   165 PWs)   bands (ev):

     1.0086   6.4187  16.7019  18.9654  20.0226  20.5530

          k = 0.4375-0.4375 0.5625 (   166 PWs)   bands (ev):

     2.9270   4.0188  17.4453  17.7882  19.3047  20.7219

          k = 0.3125-0.3125 0.4375 (   162 PWs)   bands (ev):

     0.1753   7.7345  17.3012  18.7569  18.9336  22.1545

          k = 0.1875-0.1875 0.3125 (   165 PWs)   bands (ev):

    -1.7959  12.0993  17.5206  18.9440  21.0553  23.2361

          k = 0.0625-0.0625 0.1875 (   169 PWs)   bands (ev):

    -2.9398  16.9563  18.4452  19.5590  21.4953  23.5589

          k =-0.0625 0.3125 0.0625 (   166 PWs)   bands (ev):

    -2.3661  15.4688  17.0318  18.2364  20.4444  21.0852

          k =-0.1875 0.4375-0.0625 (   164 PWs)   bands (ev):

    -1.2284  12.4885  14.8508  17.8636  18.8443  21.4359

          k =-0.3125 0.5625-0.1875 (   162 PWs)   bands (ev):

     0.7319   8.2379  14.5328  15.6425  18.8698  23.5304

          k = 0.5625-0.3125 0.6875 (   166 PWs)   bands (ev):

     3.4646   4.5568  14.0803  15.0812  19.4301  22.1860

          k = 0.4375-0.1875 0.5625 (   164 PWs)   bands (ev):

     1.5606   6.9290  13.3566  16.3027  20.6365  21.4859

          k = 0.3125-0.0625 0.4375 (   164 PWs)   bands (ev):

    -0.6646  10.9560  13.4696  18.2603  21.2015  22.5512

          k = 0.1875 0.0625 0.3125 (   163 PWs)   bands (ev):

    -2.0806  13.7662  16.0515  19.9436  20.8358  22.4421

          k =-0.0625 0.5625 0.0625 (   166 PWs)   bands (ev):

    -0.3833  13.1755  14.6179  14.9041  15.9681  18.9163

          k =-0.1875 0.6875-0.0625 (   166 PWs)   bands (ev):

     1.2842  10.6732  12.0429  13.1949  17.1095  19.9628

          k = 0.6875-0.1875 0.8125 (   168 PWs)   bands (ev):

     3.7254   6.9198  10.2861  13.3418  17.6797  23.6344

          k = 0.5625-0.0625 0.6875 (   170 PWs)   bands (ev):

     3.7358   6.8105   9.3839  14.3274  18.7642  25.2560

          k = 0.4375 0.0625 0.5625 (   165 PWs)   bands (ev):

     1.2852   8.6292  11.2099  16.0606  20.5002  23.0345

          k = 0.3125 0.1875 0.4375 (   162 PWs)   bands (ev):

    -0.3838   9.2822  15.5238  18.4878  19.6833  22.6985

          k =-0.0625 0.8125 0.0625 (   166 PWs)   bands (ev):

     2.6458   9.2096  11.9001  13.7285  14.6556  17.7577

          k = 0.8125-0.0625 0.9375 (   170 PWs)   bands (ev):

     4.7116   7.1992   9.9253  12.4182  16.3427  19.2796

          k = 0.6875 0.0625 0.8125 (   173 PWs)   bands (ev):

     5.4906   6.6379   8.0711  13.0883  17.4301  23.4465

          k = 0.5625 0.1875 0.6875 (   169 PWs)   bands (ev):

     4.0007   5.0807  11.5810  14.5765  18.9953  23.6196

          k = 0.4375 0.3125 0.5625 (   166 PWs)   bands (ev):

     2.1097   5.3553  15.7662  16.7798  19.9515  21.0424

          k =-0.0625-0.9375 0.0625 (   168 PWs)   bands (ev):

     4.4497   6.9335  11.6397  13.4938  14.3919  17.5146

          k =-0.1875-0.8125-0.0625 (   170 PWs)   bands (ev):

     2.9165   9.4399  10.2072  12.6716  16.5993  19.5103

          k =-0.3125-0.6875-0.1875 (   167 PWs)   bands (ev):

     2.1080   7.4491  12.8147  13.8611  18.1694  23.9234

          k =-0.0625-0.6875 0.0625 (   166 PWs)   bands (ev):

     1.0080  11.7803  12.4316  14.1983  15.1817  18.2325

          k =-0.1875-0.5625-0.0625 (   163 PWs)   bands (ev):

    -0.1034  11.4579  13.8464  14.9202  17.8656  20.6153

          k =-0.0625-0.4375 0.0625 (   166 PWs)   bands (ev):

    -1.5115  14.2028  15.8493  16.9807  17.6395  19.7733

          k =-0.1875 0.1875 0.1875 (   168 PWs)   bands (ev):

    -2.3663  13.6121  18.9391  18.9391  22.2359  23.4839

          k =-0.3125 0.3125 0.0625 (   162 PWs)   bands (ev):

    -1.5118  12.2413  14.6881  20.5308  21.7091  22.6298

          k =-0.4375 0.4375-0.0625 (   162 PWs)   bands (ev):

     0.1756   9.6662  12.2333  18.2568  20.2993  23.1767

          k = 0.4375-0.4375 0.8125 (   166 PWs)   bands (ev):

     2.6554   5.8723  12.3553  16.5876  18.5023  23.4377

          k = 0.3125-0.3125 0.6875 (   168 PWs)   bands (ev):

     2.6537   5.8842  13.3529  15.6291  17.4175  24.3884

          k = 0.1875-0.1875 0.5625 (   163 PWs)   bands (ev):

     0.1757   9.7797  15.1176  15.3841  17.0550  22.4672

          k =-0.1875 0.4375 0.1875 (   161 PWs)   bands (ev):

    -0.9461  10.8164  16.3336  17.9680  18.1101  23.2410

          k =-0.3125 0.5625 0.0625 (   165 PWs)   bands (ev):

     0.4541   9.9218  12.4591  15.3959  20.3412  22.5852

          k = 0.5625-0.3125 0.9375 (   167 PWs)   bands (ev):

     2.6537   7.8494  10.4191  13.3935  21.5365  22.4673

          k = 0.4375-0.1875 0.8125 (   168 PWs)   bands (ev):

     4.5227   5.6127  11.0152  12.1813  20.3443  23.2826

          k = 0.3125-0.0625 0.6875 (   166 PWs)   bands (ev):

     1.8340   9.1421  11.6343  12.6943  19.6239  22.1232

          k =-0.1875 0.6875 0.1875 (   165 PWs)   bands (ev):

     1.5595   8.9950  12.3352  14.6742  16.2882  21.8342

          k = 0.6875-0.1875 1.0625 (   164 PWs)   bands (ev):

     3.4568   8.6121   9.9707  11.2968  19.1308  21.7342

          k = 0.5625-0.0625 0.9375 (   166 PWs)   bands (ev):

     6.0120   7.0577   8.4994   9.7920  21.6572  23.7432

          k = 0.4375 0.0625 0.8125 (   164 PWs)   bands (ev):

     4.2614   7.3279   9.8211  10.9417  21.8632  22.9591

          k =-0.1875-1.0625 0.1875 (   172 PWs)   bands (ev):

     4.9727   7.4265   8.2918  13.9661  15.4924  21.1703

          k =-0.3125-0.9375 0.0625 (   167 PWs)   bands (ev):

     5.2346   7.6948   8.4200  10.9979  18.8807  21.5272

          k =-0.1875-0.8125 0.1875 (   168 PWs)   bands (ev):

     3.1870   8.4524   9.7859  14.2022  15.7604  21.3944

          k =-0.3125 0.3125 0.3125 (   162 PWs)   bands (ev):

    -0.6647   9.0389  18.4943  18.4944  21.4215  21.4216

          k =-0.4375 0.4375 0.1875 (   165 PWs)   bands (ev):

     0.4539   7.9802  14.3513  18.4965  20.4447  21.4746

          k = 0.4375-0.4375 1.0625 (   168 PWs)   bands (ev):

     2.3828   7.5909  10.1759  16.3478  18.2776  25.1746

          k = 0.3125-0.3125 0.9375 (   172 PWs)   bands (ev):

     5.0630   6.0355   8.5918  14.9161  16.6688  25.6560

          k =-0.3125 0.5625 0.3125 (   165 PWs)   bands (ev):

     1.2850   6.6798  16.0915  16.3447  18.0984  23.1448

          k = 0.5625-0.3125 1.1875 (   169 PWs)   bands (ev):

     2.9253   6.1362  12.5595  13.6689  20.7466  21.9299

          k = 0.4375-0.1875 1.0625 (   169 PWs)   bands (ev):

     5.3172   6.2957   8.8421  11.8892  20.1191  24.7922

          k =-0.3125-1.1875 0.3125 (   172 PWs)   bands (ev):

     4.2564   5.3581  10.8117  15.1534  16.9239  25.7554

          k =-0.4375 0.4375 0.4375 (   162 PWs)   bands (ev):

     1.8360   5.0910  18.7402  18.7403  19.7604  19.7605

          k = 0.4375-0.4375 1.3125 (   164 PWs)   bands (ev):

     3.1971   4.2873  14.8427  17.0681  18.9083  21.9524

     the Fermi energy is     7.8193 ev

!    total energy              =      -4.18869206 Ry
     estimated scf accuracy    <       0.00000038 Ry
     smearing contrib. (-TS)   =       0.00004755 Ry
     internal energy E=F+TS    =      -4.18873961 Ry

     The total energy is F=E-TS. E is the sum of the following terms:
     one-electron contribution =       2.83996389 Ry
     hartree contribution      =       0.00902024 Ry
     xc contribution           =      -1.61344159 Ry
     ewald contribution        =      -5.42428214 Ry

     convergence has been achieved in   3 iterations

     Writing all to output data dir ./tmp/Al.save/

     init_run     :      0.24s CPU      0.24s WALL (       1 calls)
     electrons    :      0.28s CPU      0.31s WALL (       1 calls)

     Called by init_run:
     wfcinit      :      0.05s CPU      0.05s WALL (       1 calls)
     potinit      :      0.02s CPU      0.02s WALL (       1 calls)
     hinit0       :      0.16s CPU      0.16s WALL (       1 calls)

     Called by electrons:
     c_bands      :      0.24s CPU      0.26s WALL (       4 calls)
     sum_band     :      0.04s CPU      0.04s WALL (       4 calls)
     v_of_rho     :      0.00s CPU      0.00s WALL (       4 calls)
     mix_rho      :      0.00s CPU      0.00s WALL (       4 calls)

     Called by c_bands:
     init_us_2    :      0.01s CPU      0.01s WALL (     540 calls)
     init_us_2:cp :      0.01s CPU      0.01s WALL (     540 calls)
     cegterg      :      0.23s CPU      0.25s WALL (     240 calls)

     Called by *egterg:
     cdiaghg      :      0.04s CPU      0.04s WALL (     648 calls)
     h_psi        :      0.18s CPU      0.18s WALL (     768 calls)
     g_psi        :      0.00s CPU      0.00s WALL (     468 calls)

     Called by h_psi:
     h_psi:calbec :      0.01s CPU      0.01s WALL (     768 calls)
     vloc_psi     :      0.16s CPU      0.16s WALL (     768 calls)
     add_vuspsi   :      0.01s CPU      0.01s WALL (     768 calls)

     General routines
     calbec       :      0.01s CPU      0.01s WALL (     768 calls)
     fft          :      0.16s CPU      0.16s WALL (      18 calls)
     ffts         :      0.02s CPU      0.02s WALL (       8 calls)
     fftw         :      0.12s CPU      0.12s WALL (    9266 calls)
     interpolate  :      0.02s CPU      0.02s WALL (       4 calls)

     Parallel routines

     PWSCF        :      0.54s CPU      0.57s WALL


   This run was terminated on:  16:38:55   2Jun2023            

=------------------------------------------------------------------------------=
   JOB DONE.
=------------------------------------------------------------------------------=
