### Running on host: ip-172-31-10-78

     Program PWSCF v.7.2 starts on  2Jun2023 at 16:38:44 

     This program is part of the open-source Quantum ESPRESSO suite
     for quantum simulation of materials; please cite
         "P. Giannozzi et al., J. Phys.:Condens. Matter 21 395502 (2009);
         "P. Giannozzi et al., J. Phys.:Condens. Matter 29 465901 (2017);
         "P. Giannozzi et al., J. Chem. Phys. 152 154105 (2020);
          URL http://www.quantum-espresso.org", 
     in publications or presentations arising from this work. More details at
     http://www.quantum-espresso.org/quote

     Parallel version (MPI), running on     1 processors

     MPI processes distributed on     1 nodes
     398 MiB available memory on the printing compute node when the environment starts

     Reading input from eos.Al.d/eos.Al.estimator-1.in

     Current dimensions of program PWSCF are:
     Max number of different atomic species (ntypx) = 10
     Max number of k-points (npk) =  40000
     Max angular momentum in pseudopotentials (lmaxx) =  4
     Message from routine setup:
     no reason to have ecutrho>4*ecutwfc

     Subspace diagonalization in iterative solution of the eigenvalue problem:
     a serial algorithm will be used


     G-vector sticks info
     --------------------
     sticks:   dense  smooth     PW     G-vecs:    dense   smooth      PW
     Sum         313     163     61                 3839     1363     331

     Using Slab Decomposition



     bravais-lattice index     =            2
     lattice parameter (alat)  =       7.6500  a.u.
     unit-cell volume          =     111.9243 (a.u.)^3
     number of atoms/cell      =            1
     number of atomic types    =            1
     number of electrons       =         3.00
     number of Kohn-Sham states=            6
     kinetic-energy cutoff     =      20.0000  Ry
     charge density cutoff     =     160.0000  Ry
     scf convergence threshold =      1.0E-06
     mixing beta               =       0.7000
     number of iterations used =            8  plain     mixing
     Exchange-correlation=  SLA  PZ   NOGX NOGC
                           (   1   1   0   0   0   0   0)

     celldm(1)=   7.650000  celldm(2)=   0.000000  celldm(3)=   0.000000
     celldm(4)=   0.000000  celldm(5)=   0.000000  celldm(6)=   0.000000

     crystal axes: (cart. coord. in units of alat)
               a(1) = (  -0.500000   0.000000   0.500000 )  
               a(2) = (   0.000000   0.500000   0.500000 )  
               a(3) = (  -0.500000   0.500000   0.000000 )  

     reciprocal axes: (cart. coord. in units 2 pi/alat)
               b(1) = ( -1.000000 -1.000000  1.000000 )  
               b(2) = (  1.000000  1.000000  1.000000 )  
               b(3) = ( -1.000000  1.000000 -1.000000 )  


     PseudoPot. # 1 for Al read from file:
     ./Al.pz-vbc.UPF
     MD5 check sum: c34c8b369e81ee50c191f4345b5f621b
     Pseudo is Norm-conserving, Zval =  3.0
     Generated by new atomic code, or converted to UPF format
     Using radial grid of  171 points,  2 beta functions with: 
                l(1) =   0
                l(2) =   1

     atomic species   valence    mass     pseudopotential
        Al             3.00    26.98000     Al( 1.00)

     48 Sym. Ops., with inversion, found



   Cartesian axes

     site n.     atom                  positions (alat units)
         1           Al  tau(   1) = (   0.0000000   0.0000000   0.0000000  )

     number of k points=    60  Marzari-Vanderbilt smearing, width (Ry)=  0.0200
                       cart. coord. in units 2pi/alat
        k(    1) = (  -0.0625000   0.0625000   0.0625000), wk =   0.0078125
        k(    2) = (  -0.1875000   0.1875000  -0.0625000), wk =   0.0234375
        k(    3) = (  -0.3125000   0.3125000  -0.1875000), wk =   0.0234375
        k(    4) = (  -0.4375000   0.4375000  -0.3125000), wk =   0.0234375
        k(    5) = (   0.4375000  -0.4375000   0.5625000), wk =   0.0234375
        k(    6) = (   0.3125000  -0.3125000   0.4375000), wk =   0.0234375
        k(    7) = (   0.1875000  -0.1875000   0.3125000), wk =   0.0234375
        k(    8) = (   0.0625000  -0.0625000   0.1875000), wk =   0.0234375
        k(    9) = (  -0.0625000   0.3125000   0.0625000), wk =   0.0234375
        k(   10) = (  -0.1875000   0.4375000  -0.0625000), wk =   0.0468750
        k(   11) = (  -0.3125000   0.5625000  -0.1875000), wk =   0.0468750
        k(   12) = (   0.5625000  -0.3125000   0.6875000), wk =   0.0468750
        k(   13) = (   0.4375000  -0.1875000   0.5625000), wk =   0.0468750
        k(   14) = (   0.3125000  -0.0625000   0.4375000), wk =   0.0468750
        k(   15) = (   0.1875000   0.0625000   0.3125000), wk =   0.0468750
        k(   16) = (  -0.0625000   0.5625000   0.0625000), wk =   0.0234375
        k(   17) = (  -0.1875000   0.6875000  -0.0625000), wk =   0.0468750
        k(   18) = (   0.6875000  -0.1875000   0.8125000), wk =   0.0468750
        k(   19) = (   0.5625000  -0.0625000   0.6875000), wk =   0.0468750
        k(   20) = (   0.4375000   0.0625000   0.5625000), wk =   0.0468750
        k(   21) = (   0.3125000   0.1875000   0.4375000), wk =   0.0468750
        k(   22) = (  -0.0625000   0.8125000   0.0625000), wk =   0.0234375
        k(   23) = (   0.8125000  -0.0625000   0.9375000), wk =   0.0468750
        k(   24) = (   0.6875000   0.0625000   0.8125000), wk =   0.0468750
        k(   25) = (   0.5625000   0.1875000   0.6875000), wk =   0.0468750
        k(   26) = (   0.4375000   0.3125000   0.5625000), wk =   0.0468750
        k(   27) = (  -0.0625000  -0.9375000   0.0625000), wk =   0.0234375
        k(   28) = (  -0.1875000  -0.8125000  -0.0625000), wk =   0.0468750
        k(   29) = (  -0.3125000  -0.6875000  -0.1875000), wk =   0.0468750
        k(   30) = (  -0.0625000  -0.6875000   0.0625000), wk =   0.0234375
        k(   31) = (  -0.1875000  -0.5625000  -0.0625000), wk =   0.0468750
        k(   32) = (  -0.0625000  -0.4375000   0.0625000), wk =   0.0234375
        k(   33) = (  -0.1875000   0.1875000   0.1875000), wk =   0.0078125
        k(   34) = (  -0.3125000   0.3125000   0.0625000), wk =   0.0234375
        k(   35) = (  -0.4375000   0.4375000  -0.0625000), wk =   0.0234375
        k(   36) = (   0.4375000  -0.4375000   0.8125000), wk =   0.0234375
        k(   37) = (   0.3125000  -0.3125000   0.6875000), wk =   0.0234375
        k(   38) = (   0.1875000  -0.1875000   0.5625000), wk =   0.0234375
        k(   39) = (  -0.1875000   0.4375000   0.1875000), wk =   0.0234375
        k(   40) = (  -0.3125000   0.5625000   0.0625000), wk =   0.0468750
        k(   41) = (   0.5625000  -0.3125000   0.9375000), wk =   0.0468750
        k(   42) = (   0.4375000  -0.1875000   0.8125000), wk =   0.0468750
        k(   43) = (   0.3125000  -0.0625000   0.6875000), wk =   0.0468750
        k(   44) = (  -0.1875000   0.6875000   0.1875000), wk =   0.0234375
        k(   45) = (   0.6875000  -0.1875000   1.0625000), wk =   0.0468750
        k(   46) = (   0.5625000  -0.0625000   0.9375000), wk =   0.0468750
        k(   47) = (   0.4375000   0.0625000   0.8125000), wk =   0.0468750
        k(   48) = (  -0.1875000  -1.0625000   0.1875000), wk =   0.0234375
        k(   49) = (  -0.3125000  -0.9375000   0.0625000), wk =   0.0468750
        k(   50) = (  -0.1875000  -0.8125000   0.1875000), wk =   0.0234375
        k(   51) = (  -0.3125000   0.3125000   0.3125000), wk =   0.0078125
        k(   52) = (  -0.4375000   0.4375000   0.1875000), wk =   0.0234375
        k(   53) = (   0.4375000  -0.4375000   1.0625000), wk =   0.0234375
        k(   54) = (   0.3125000  -0.3125000   0.9375000), wk =   0.0234375
        k(   55) = (  -0.3125000   0.5625000   0.3125000), wk =   0.0234375
        k(   56) = (   0.5625000  -0.3125000   1.1875000), wk =   0.0468750
        k(   57) = (   0.4375000  -0.1875000   1.0625000), wk =   0.0468750
        k(   58) = (  -0.3125000  -1.1875000   0.3125000), wk =   0.0234375
        k(   59) = (  -0.4375000   0.4375000   0.4375000), wk =   0.0078125
        k(   60) = (   0.4375000  -0.4375000   1.3125000), wk =   0.0234375

     Dense  grid:     3839 G-vectors     FFT dimensions: (  24,  24,  24)

     Smooth grid:     1363 G-vectors     FFT dimensions: (  15,  15,  15)

     Estimated max dynamical RAM per process >       3.64 MB

     Initial potential from superposition of free atoms

     starting charge       2.9979, renormalised to       3.0000

     negative rho (up, down):  4.796E-05 0.000E+00
     Starting wfcs are    9 randomized atomic wfcs

     total cpu time spent up to now is        0.3 secs

     Self-consistent Calculation

     iteration #  1     ecut=    20.00 Ry     beta= 0.70
     Davidson diagonalization with overlap
     ethr =  1.00E-02,  avg # of iterations =  2.8

     Threshold (ethr) on eigenvalues was too large:
     Diagonalizing with lowered threshold

     Davidson diagonalization with overlap
     ethr =  1.93E-04,  avg # of iterations =  2.1

     negative rho (up, down):  1.365E-05 0.000E+00

     total cpu time spent up to now is        0.5 secs

     total energy              =      -4.18807977 Ry
     estimated scf accuracy    <       0.00575359 Ry

     iteration #  2     ecut=    20.00 Ry     beta= 0.70
     Davidson diagonalization with overlap
     ethr =  1.92E-04,  avg # of iterations =  1.0

     negative rho (up, down):  6.531E-06 0.000E+00

     total cpu time spent up to now is        0.6 secs

     total energy              =      -4.18811796 Ry
     estimated scf accuracy    <       0.00042995 Ry

     iteration #  3     ecut=    20.00 Ry     beta= 0.70
     Davidson diagonalization with overlap
     ethr =  1.43E-05,  avg # of iterations =  1.8

     total cpu time spent up to now is        0.6 secs

     End of self-consistent calculation

          k =-0.0625 0.0625 0.0625 (   169 PWs)   bands (ev):

    -3.2837  18.3246  19.7381  19.7382  21.8322  21.8323

          k =-0.1875 0.1875-0.0625 (   169 PWs)   bands (ev):

    -2.7149  15.0376  17.1385  20.2331  22.0231  22.5384

          k =-0.3125 0.3125-0.1875 (   163 PWs)   bands (ev):

    -1.3067  10.3792  16.4193  19.5574  20.6970  22.1279

          k =-0.4375 0.4375-0.3125 (   167 PWs)   bands (ev):

     0.9071   6.2623  16.4316  18.6548  19.7403  20.2500

          k = 0.4375-0.4375 0.5625 (   167 PWs)   bands (ev):

     2.8075   3.8843  17.1672  17.5023  19.0145  20.4198

          k = 0.3125-0.3125 0.4375 (   165 PWs)   bands (ev):

     0.0822   7.5653  17.0220  18.4362  18.6773  21.8352

          k = 0.1875-0.1875 0.3125 (   166 PWs)   bands (ev):

    -1.8677  11.8890  17.2412  18.6534  20.7416  22.8896

          k = 0.0625-0.0625 0.1875 (   169 PWs)   bands (ev):

    -2.9989  16.7002  18.1608  19.2845  21.1277  23.2120

          k =-0.0625 0.3125 0.0625 (   166 PWs)   bands (ev):

    -2.4316  15.2291  16.7579  17.9776  20.0710  20.8127

          k =-0.1875 0.4375-0.0625 (   165 PWs)   bands (ev):

    -1.3064  12.2795  14.5973  17.5802  18.5707  21.0991

          k =-0.3125 0.5625-0.1875 (   168 PWs)   bands (ev):

     0.6331   8.0648  14.2897  15.3783  18.5817  23.1891

          k = 0.5625-0.3125 0.6875 (   167 PWs)   bands (ev):

     3.3408   4.4165  13.8467  14.8182  19.1326  21.8659

          k = 0.4375-0.1875 0.5625 (   168 PWs)   bands (ev):

     1.4536   6.7685  13.1227  16.0328  20.3211  21.1805

          k = 0.3125-0.0625 0.4375 (   167 PWs)   bands (ev):

    -0.7487  10.7619  13.2281  17.9696  20.9001  22.2184

          k = 0.1875 0.0625 0.3125 (   164 PWs)   bands (ev):

    -2.1492  13.5436  15.7859  19.6488  20.5131  22.1187

          k =-0.0625 0.5625 0.0625 (   170 PWs)   bands (ev):

    -0.4705  12.9626  14.3800  14.6471  15.7266  18.5840

          k =-0.1875 0.6875-0.0625 (   171 PWs)   bands (ev):

     1.1799  10.4852  11.8337  12.9417  16.8516  19.6312

          k = 0.6875-0.1875 0.8125 (   170 PWs)   bands (ev):

     3.5982   6.7608  10.0850  13.0983  17.4037  23.2816

          k = 0.5625-0.0625 0.6875 (   171 PWs)   bands (ev):

     3.6083   6.6561   9.1846  14.0765  18.4739  24.9069

          k = 0.4375 0.0625 0.5625 (   168 PWs)   bands (ev):

     1.1809   8.4580  10.9915  15.7934  20.1900  22.7147

          k = 0.3125 0.1875 0.4375 (   166 PWs)   bands (ev):

    -0.4710   9.0987  15.2659  18.1932  19.3938  22.3705

          k =-0.0625 0.8125 0.0625 (   168 PWs)   bands (ev):

     2.5284   9.0245  11.6994  13.4808  14.4275  17.4348

          k = 0.8125-0.0625 0.9375 (   172 PWs)   bands (ev):

     4.5776   7.0306   9.7396  12.1796  16.0922  18.9541

          k = 0.6875 0.0625 0.8125 (   174 PWs)   bands (ev):

     5.3517   6.4858   7.8807  12.8482  17.1567  23.0964

          k = 0.5625 0.1875 0.6875 (   170 PWs)   bands (ev):

     3.8725   4.9354  11.3668  14.3226  18.7026  23.2849

          k = 0.4375 0.3125 0.5625 (   167 PWs)   bands (ev):

     1.9973   5.2091  15.5096  16.5047  19.6485  20.7365

          k =-0.0625-0.9375 0.0625 (   176 PWs)   bands (ev):

     4.3174   6.7660  11.4417  13.2469  14.1658  17.1939

          k =-0.1875-0.8125-0.0625 (   171 PWs)   bands (ev):

     2.7968   9.2593  10.0141  12.4297  16.3463  19.1828

          k =-0.3125-0.6875-0.1875 (   170 PWs)   bands (ev):

     1.9956   7.2844  12.5965  13.6068  17.8880  23.5690

          k =-0.0625-0.6875 0.0625 (   171 PWs)   bands (ev):

     0.9067  11.5747  12.2212  13.9461  14.9486  17.9053

          k =-0.1875-0.5625-0.0625 (   167 PWs)   bands (ev):

    -0.1934  11.2598  13.6092  14.6629  17.6002  20.2798

          k =-0.0625-0.4375 0.0625 (   166 PWs)   bands (ev):

    -1.5864  13.9775  15.5849  16.7382  17.3591  19.4414

          k =-0.1875 0.1875 0.1875 (   168 PWs)   bands (ev):

    -2.4318  13.3870  18.6475  18.6475  21.9066  23.1309

          k =-0.3125 0.3125 0.0625 (   164 PWs)   bands (ev):

    -1.5867  12.0345  14.4346  20.1941  21.4244  22.3060

          k =-0.4375 0.4375-0.0625 (   167 PWs)   bands (ev):

     0.0826   9.4850  12.0032  17.9639  19.9953  22.8586

          k = 0.4375-0.4375 0.8125 (   168 PWs)   bands (ev):

     2.5378   5.7214  12.1315  16.3140  18.2159  23.1078

          k = 0.3125-0.3125 0.6875 (   168 PWs)   bands (ev):

     2.5362   5.7331  13.1224  15.3653  17.1422  24.0467

          k = 0.1875-0.1875 0.5625 (   169 PWs)   bands (ev):

     0.0826   9.5929  14.8730  15.1228  16.7846  22.1239

          k =-0.1875 0.4375 0.1875 (   165 PWs)   bands (ev):

    -1.0272  10.6188  16.0640  17.7196  17.8024  22.8924

          k =-0.3125 0.5625 0.0625 (   169 PWs)   bands (ev):

     0.3583   9.7382  12.2299  15.1355  20.0472  22.2324

          k = 0.5625-0.3125 0.9375 (   169 PWs)   bands (ev):

     2.5362   7.6857  10.2118  13.1499  21.2111  22.1557

          k = 0.4375-0.1875 0.8125 (   169 PWs)   bands (ev):

     4.3902   5.4628  10.8170  11.9393  20.0387  22.9500

          k = 0.3125-0.0625 0.6875 (   172 PWs)   bands (ev):

     1.7243   8.9666  11.4267  12.4464  19.3380  21.7755

          k =-0.1875 0.6875 0.1875 (   171 PWs)   bands (ev):

     1.4525   8.8165  12.1154  14.4186  16.0283  21.4957

          k = 0.6875-0.1875 1.0625 (   171 PWs)   bands (ev):

     3.3318   8.4437   9.7837  11.0549  18.8495  21.3907

          k = 0.5625-0.0625 0.9375 (   170 PWs)   bands (ev):

     5.8683   6.9038   8.3274   9.5577  21.3465  23.3816

          k = 0.4375 0.0625 0.8125 (   170 PWs)   bands (ev):

     4.1290   7.1691   9.6351  10.7047  21.5470  22.6251

          k =-0.1875-1.0625 0.1875 (   174 PWs)   bands (ev):

     4.8368   7.2653   8.1038  13.7158  15.2425  20.8385

          k =-0.3125-0.9375 0.0625 (   170 PWs)   bands (ev):

     5.0964   7.5310   8.2404  10.7673  18.6026  21.1856

          k =-0.1875-0.8125 0.1875 (   172 PWs)   bands (ev):

     3.0645   8.2840   9.5851  13.9495  15.5072  21.0607

          k =-0.3125 0.3125 0.3125 (   162 PWs)   bands (ev):

    -0.7487   8.8575  18.2020  18.2020  21.1117  21.1119

          k =-0.4375 0.4375 0.1875 (   166 PWs)   bands (ev):

     0.3582   7.8095  14.1063  18.2002  20.1408  21.1706

          k = 0.4375-0.4375 1.0625 (   171 PWs)   bands (ev):

     2.2676   7.4290   9.9678  16.0763  17.9934  24.8281

          k = 0.3125-0.3125 0.9375 (   172 PWs)   bands (ev):

     4.9260   5.8862   8.3993  14.6581  16.4024  25.2866

          k =-0.3125 0.5625 0.3125 (   169 PWs)   bands (ev):

     1.1806   6.5209  15.8337  16.0740  17.8159  22.8149

          k = 0.5625-0.3125 1.1875 (   169 PWs)   bands (ev):

     2.8053   5.9833  12.3432  13.4169  20.4336  21.6146

          k = 0.4375-0.1875 1.0625 (   172 PWs)   bands (ev):

     5.1781   6.1441   8.6507  11.6576  19.8162  24.4428

          k =-0.3125-1.1875 0.3125 (   174 PWs)   bands (ev):

     4.1262   5.2101  10.6042  14.8930  16.6544  25.3822

          k =-0.4375 0.4375 0.4375 (   168 PWs)   bands (ev):

     1.7259   4.9470  18.4347  18.4347  19.4769  19.4769

          k = 0.4375-0.4375 1.3125 (   168 PWs)   bands (ev):

     3.0753   4.1498  14.5947  16.7890  18.6184  21.6362

     the Fermi energy is     7.6521 ev

!    total energy              =      -4.18812487 Ry
     estimated scf accuracy    <       0.00000039 Ry
     smearing contrib. (-TS)   =       0.00003574 Ry
     internal energy E=F+TS    =      -4.18816061 Ry

     The total energy is F=E-TS. E is the sum of the following terms:
     one-electron contribution =       2.80218054 Ry
     hartree contribution      =       0.00881405 Ry
     xc contribution           =      -1.60519977 Ry
     ewald contribution        =      -5.39395543 Ry

     convergence has been achieved in   3 iterations


     Computing stress (Cartesian axis) and pressure

          total   stress  (Ry/bohr**3)                   (kbar)     P=      -52.41
  -0.00035631   0.00000000   0.00000000          -52.41        0.00        0.00
   0.00000000  -0.00035631  -0.00000000            0.00      -52.41       -0.00
   0.00000000  -0.00000000  -0.00035631            0.00       -0.00      -52.41


     Writing all to output data dir ./tmp/Al.save/

     init_run     :      0.21s CPU      0.26s WALL (       1 calls)
     electrons    :      0.30s CPU      0.33s WALL (       1 calls)
     stress       :      0.03s CPU      0.03s WALL (       1 calls)

     Called by init_run:
     wfcinit      :      0.05s CPU      0.07s WALL (       1 calls)
     potinit      :      0.01s CPU      0.02s WALL (       1 calls)
     hinit0       :      0.14s CPU      0.16s WALL (       1 calls)

     Called by electrons:
     c_bands      :      0.25s CPU      0.27s WALL (       4 calls)
     sum_band     :      0.04s CPU      0.05s WALL (       4 calls)
     v_of_rho     :      0.00s CPU      0.00s WALL (       4 calls)
     mix_rho      :      0.00s CPU      0.00s WALL (       4 calls)

     Called by c_bands:
     init_us_2    :      0.02s CPU      0.02s WALL (     600 calls)
     init_us_2:cp :      0.02s CPU      0.02s WALL (     600 calls)
     cegterg      :      0.24s CPU      0.26s WALL (     240 calls)

     Called by *egterg:
     cdiaghg      :      0.03s CPU      0.05s WALL (     642 calls)
     h_psi        :      0.19s CPU      0.20s WALL (     762 calls)
     g_psi        :      0.00s CPU      0.00s WALL (     462 calls)

     Called by h_psi:
     h_psi:calbec :      0.01s CPU      0.01s WALL (     762 calls)
     vloc_psi     :      0.17s CPU      0.17s WALL (     762 calls)
     add_vuspsi   :      0.01s CPU      0.01s WALL (     762 calls)

     General routines
     calbec       :      0.01s CPU      0.01s WALL (     822 calls)
     fft          :      0.14s CPU      0.15s WALL (      21 calls)
     ffts         :      0.01s CPU      0.02s WALL (       8 calls)
     fftw         :      0.13s CPU      0.14s WALL (    9240 calls)
     interpolate  :      0.01s CPU      0.02s WALL (       4 calls)

     Parallel routines

     PWSCF        :      0.56s CPU      0.68s WALL


   This run was terminated on:  16:38:45   2Jun2023            

=------------------------------------------------------------------------------=
   JOB DONE.
=------------------------------------------------------------------------------=
