### Running on host: ip-172-31-10-78

     Program PWSCF v.7.2 starts on  2Jun2023 at 16:38:51 

     This program is part of the open-source Quantum ESPRESSO suite
     for quantum simulation of materials; please cite
         "P. Giannozzi et al., J. Phys.:Condens. Matter 21 395502 (2009);
         "P. Giannozzi et al., J. Phys.:Condens. Matter 29 465901 (2017);
         "P. Giannozzi et al., J. Chem. Phys. 152 154105 (2020);
          URL http://www.quantum-espresso.org", 
     in publications or presentations arising from this work. More details at
     http://www.quantum-espresso.org/quote

     Parallel version (MPI), running on     1 processors

     MPI processes distributed on     1 nodes
     377 MiB available memory on the printing compute node when the environment starts

     Reading input from eos.Al.d/eos.Al.7.in

     Current dimensions of program PWSCF are:
     Max number of different atomic species (ntypx) = 10
     Max number of k-points (npk) =  40000
     Max angular momentum in pseudopotentials (lmaxx) =  4
     Message from routine setup:
     no reason to have ecutrho>4*ecutwfc

     Subspace diagonalization in iterative solution of the eigenvalue problem:
     a serial algorithm will be used


     G-vector sticks info
     --------------------
     sticks:   dense  smooth     PW     G-vecs:    dense   smooth      PW
     Sum         313     151     61                 3527     1243     331

     Using Slab Decomposition



     bravais-lattice index     =            2
     lattice parameter (alat)  =       7.4363  a.u.
     unit-cell volume          =     102.8034 (a.u.)^3
     number of atoms/cell      =            1
     number of atomic types    =            1
     number of electrons       =         3.00
     number of Kohn-Sham states=            6
     kinetic-energy cutoff     =      20.0000  Ry
     charge density cutoff     =     160.0000  Ry
     scf convergence threshold =      1.0E-06
     mixing beta               =       0.7000
     number of iterations used =            8  plain     mixing
     Exchange-correlation=  SLA  PZ   NOGX NOGC
                           (   1   1   0   0   0   0   0)

     celldm(1)=   7.436281  celldm(2)=   0.000000  celldm(3)=   0.000000
     celldm(4)=   0.000000  celldm(5)=   0.000000  celldm(6)=   0.000000

     crystal axes: (cart. coord. in units of alat)
               a(1) = (  -0.500000   0.000000   0.500000 )  
               a(2) = (   0.000000   0.500000   0.500000 )  
               a(3) = (  -0.500000   0.500000   0.000000 )  

     reciprocal axes: (cart. coord. in units 2 pi/alat)
               b(1) = ( -1.000000 -1.000000  1.000000 )  
               b(2) = (  1.000000  1.000000  1.000000 )  
               b(3) = ( -1.000000  1.000000 -1.000000 )  


     PseudoPot. # 1 for Al read from file:
     ./Al.pz-vbc.UPF
     MD5 check sum: c34c8b369e81ee50c191f4345b5f621b
     Pseudo is Norm-conserving, Zval =  3.0
     Generated by new atomic code, or converted to UPF format
     Using radial grid of  171 points,  2 beta functions with: 
                l(1) =   0
                l(2) =   1

     atomic species   valence    mass     pseudopotential
        Al             3.00    26.98000     Al( 1.00)

     48 Sym. Ops., with inversion, found



   Cartesian axes

     site n.     atom                  positions (alat units)
         1           Al  tau(   1) = (   0.0000000   0.0000000   0.0000000  )

     number of k points=    60  Marzari-Vanderbilt smearing, width (Ry)=  0.0200
                       cart. coord. in units 2pi/alat
        k(    1) = (  -0.0625000   0.0625000   0.0625000), wk =   0.0078125
        k(    2) = (  -0.1875000   0.1875000  -0.0625000), wk =   0.0234375
        k(    3) = (  -0.3125000   0.3125000  -0.1875000), wk =   0.0234375
        k(    4) = (  -0.4375000   0.4375000  -0.3125000), wk =   0.0234375
        k(    5) = (   0.4375000  -0.4375000   0.5625000), wk =   0.0234375
        k(    6) = (   0.3125000  -0.3125000   0.4375000), wk =   0.0234375
        k(    7) = (   0.1875000  -0.1875000   0.3125000), wk =   0.0234375
        k(    8) = (   0.0625000  -0.0625000   0.1875000), wk =   0.0234375
        k(    9) = (  -0.0625000   0.3125000   0.0625000), wk =   0.0234375
        k(   10) = (  -0.1875000   0.4375000  -0.0625000), wk =   0.0468750
        k(   11) = (  -0.3125000   0.5625000  -0.1875000), wk =   0.0468750
        k(   12) = (   0.5625000  -0.3125000   0.6875000), wk =   0.0468750
        k(   13) = (   0.4375000  -0.1875000   0.5625000), wk =   0.0468750
        k(   14) = (   0.3125000  -0.0625000   0.4375000), wk =   0.0468750
        k(   15) = (   0.1875000   0.0625000   0.3125000), wk =   0.0468750
        k(   16) = (  -0.0625000   0.5625000   0.0625000), wk =   0.0234375
        k(   17) = (  -0.1875000   0.6875000  -0.0625000), wk =   0.0468750
        k(   18) = (   0.6875000  -0.1875000   0.8125000), wk =   0.0468750
        k(   19) = (   0.5625000  -0.0625000   0.6875000), wk =   0.0468750
        k(   20) = (   0.4375000   0.0625000   0.5625000), wk =   0.0468750
        k(   21) = (   0.3125000   0.1875000   0.4375000), wk =   0.0468750
        k(   22) = (  -0.0625000   0.8125000   0.0625000), wk =   0.0234375
        k(   23) = (   0.8125000  -0.0625000   0.9375000), wk =   0.0468750
        k(   24) = (   0.6875000   0.0625000   0.8125000), wk =   0.0468750
        k(   25) = (   0.5625000   0.1875000   0.6875000), wk =   0.0468750
        k(   26) = (   0.4375000   0.3125000   0.5625000), wk =   0.0468750
        k(   27) = (  -0.0625000  -0.9375000   0.0625000), wk =   0.0234375
        k(   28) = (  -0.1875000  -0.8125000  -0.0625000), wk =   0.0468750
        k(   29) = (  -0.3125000  -0.6875000  -0.1875000), wk =   0.0468750
        k(   30) = (  -0.0625000  -0.6875000   0.0625000), wk =   0.0234375
        k(   31) = (  -0.1875000  -0.5625000  -0.0625000), wk =   0.0468750
        k(   32) = (  -0.0625000  -0.4375000   0.0625000), wk =   0.0234375
        k(   33) = (  -0.1875000   0.1875000   0.1875000), wk =   0.0078125
        k(   34) = (  -0.3125000   0.3125000   0.0625000), wk =   0.0234375
        k(   35) = (  -0.4375000   0.4375000  -0.0625000), wk =   0.0234375
        k(   36) = (   0.4375000  -0.4375000   0.8125000), wk =   0.0234375
        k(   37) = (   0.3125000  -0.3125000   0.6875000), wk =   0.0234375
        k(   38) = (   0.1875000  -0.1875000   0.5625000), wk =   0.0234375
        k(   39) = (  -0.1875000   0.4375000   0.1875000), wk =   0.0234375
        k(   40) = (  -0.3125000   0.5625000   0.0625000), wk =   0.0468750
        k(   41) = (   0.5625000  -0.3125000   0.9375000), wk =   0.0468750
        k(   42) = (   0.4375000  -0.1875000   0.8125000), wk =   0.0468750
        k(   43) = (   0.3125000  -0.0625000   0.6875000), wk =   0.0468750
        k(   44) = (  -0.1875000   0.6875000   0.1875000), wk =   0.0234375
        k(   45) = (   0.6875000  -0.1875000   1.0625000), wk =   0.0468750
        k(   46) = (   0.5625000  -0.0625000   0.9375000), wk =   0.0468750
        k(   47) = (   0.4375000   0.0625000   0.8125000), wk =   0.0468750
        k(   48) = (  -0.1875000  -1.0625000   0.1875000), wk =   0.0234375
        k(   49) = (  -0.3125000  -0.9375000   0.0625000), wk =   0.0468750
        k(   50) = (  -0.1875000  -0.8125000   0.1875000), wk =   0.0234375
        k(   51) = (  -0.3125000   0.3125000   0.3125000), wk =   0.0078125
        k(   52) = (  -0.4375000   0.4375000   0.1875000), wk =   0.0234375
        k(   53) = (   0.4375000  -0.4375000   1.0625000), wk =   0.0234375
        k(   54) = (   0.3125000  -0.3125000   0.9375000), wk =   0.0234375
        k(   55) = (  -0.3125000   0.5625000   0.3125000), wk =   0.0234375
        k(   56) = (   0.5625000  -0.3125000   1.1875000), wk =   0.0468750
        k(   57) = (   0.4375000  -0.1875000   1.0625000), wk =   0.0468750
        k(   58) = (  -0.3125000  -1.1875000   0.3125000), wk =   0.0234375
        k(   59) = (  -0.4375000   0.4375000   0.4375000), wk =   0.0078125
        k(   60) = (   0.4375000  -0.4375000   1.3125000), wk =   0.0234375

     Dense  grid:     3527 G-vectors     FFT dimensions: (  24,  24,  24)

     Smooth grid:     1243 G-vectors     FFT dimensions: (  15,  15,  15)

     Estimated max dynamical RAM per process >       3.42 MB

     Initial potential from superposition of free atoms

     starting charge       2.9979, renormalised to       3.0000

     negative rho (up, down):  1.288E-05 0.000E+00
     Starting wfcs are    9 randomized atomic wfcs

     total cpu time spent up to now is        0.2 secs

     Self-consistent Calculation

     iteration #  1     ecut=    20.00 Ry     beta= 0.70
     Davidson diagonalization with overlap
     ethr =  1.00E-02,  avg # of iterations =  3.0

     Threshold (ethr) on eigenvalues was too large:
     Diagonalizing with lowered threshold

     Davidson diagonalization with overlap
     ethr =  1.96E-04,  avg # of iterations =  2.1

     negative rho (up, down):  3.244E-06 0.000E+00

     total cpu time spent up to now is        0.4 secs

     total energy              =      -4.18935261 Ry
     estimated scf accuracy    <       0.00585934 Ry

     iteration #  2     ecut=    20.00 Ry     beta= 0.70
     Davidson diagonalization with overlap
     ethr =  1.95E-04,  avg # of iterations =  1.0

     negative rho (up, down):  4.272E-06 0.000E+00

     total cpu time spent up to now is        0.5 secs

     total energy              =      -4.18939621 Ry
     estimated scf accuracy    <       0.00045324 Ry

     iteration #  3     ecut=    20.00 Ry     beta= 0.70
     Davidson diagonalization with overlap
     ethr =  1.51E-05,  avg # of iterations =  1.7

     total cpu time spent up to now is        0.5 secs

     End of self-consistent calculation

          k =-0.0625 0.0625 0.0625 (   168 PWs)   bands (ev):

    -2.9904  19.7244  21.2038  21.2038  23.6911  23.6912

          k =-0.1875 0.1875-0.0625 (   158 PWs)   bands (ev):

    -2.3883  16.2673  18.5680  21.7544  23.9309  24.3123

          k =-0.3125 0.3125-0.1875 (   152 PWs)   bands (ev):

    -0.8995  11.3914  17.8102  21.1790  22.2330  23.7795

          k =-0.4375 0.4375-0.3125 (   153 PWs)   bands (ev):

     1.4352   7.0739  17.8207  20.2252  21.2354  21.8316

          k = 0.4375-0.4375 0.5625 (   158 PWs)   bands (ev):

     3.4216   4.5894  18.5831  18.9711  20.5431  21.9999

          k = 0.3125-0.3125 0.4375 (   153 PWs)   bands (ev):

     0.5664   8.4406  18.4603  19.8957  20.2054  23.4964

          k = 0.1875-0.1875 0.3125 (   153 PWs)   bands (ev):

    -1.4922  12.9748  18.6836  20.1378  22.3742  24.6720

          k = 0.0625-0.0625 0.1875 (   160 PWs)   bands (ev):

    -2.6888  18.0179  19.6263  20.6977  23.0364  25.0084

          k =-0.0625 0.3125 0.0625 (   157 PWs)   bands (ev):

    -2.0885  16.4622  18.1739  19.3147  21.9933  22.2436

          k =-0.1875 0.4375-0.0625 (   154 PWs)   bands (ev):

    -0.8993  13.3575  15.9048  19.0273  19.9982  22.8628

          k =-0.3125 0.5625-0.1875 (   152 PWs)   bands (ev):

     1.1464   8.9588  15.5322  16.7486  20.0803  24.9562

          k = 0.5625-0.3125 0.6875 (   159 PWs)   bands (ev):

     3.9771   5.1508  15.0388  16.1905  20.6784  23.5272

          k = 0.4375-0.1875 0.5625 (   157 PWs)   bands (ev):

     2.0092   7.6000  14.3253  17.4293  21.9555  22.7658

          k = 0.3125-0.0625 0.4375 (   152 PWs)   bands (ev):

    -0.3103  11.7632  14.4747  19.4669  22.4587  23.9417

          k = 0.1875 0.0625 0.3125 (   157 PWs)   bands (ev):

    -1.7899  14.6908  17.1558  21.1468  22.1856  23.8208

          k =-0.0625 0.5625 0.0625 (   155 PWs)   bands (ev):

    -0.0169  14.0553  15.5881  15.9785  16.9898  20.3262

          k =-0.1875 0.6875-0.0625 (   154 PWs)   bands (ev):

     1.7215  11.4533  12.8990  14.2656  18.1889  21.3606

          k = 0.6875-0.1875 0.8125 (   154 PWs)   bands (ev):

     4.2565   7.5835  11.1207  14.3688  18.8378  25.1123

          k = 0.5625-0.0625 0.6875 (   155 PWs)   bands (ev):

     4.2676   7.4579  10.2147  15.3815  19.9816  26.7131

          k = 0.4375 0.0625 0.5625 (   156 PWs)   bands (ev):

     1.7224   9.3437  12.1184  17.1777  21.7984  24.3693

          k = 0.3125 0.1875 0.4375 (   153 PWs)   bands (ev):

    -0.0173  10.0459  16.5934  19.6948  20.9151  24.0703

          k =-0.0625 0.8125 0.0625 (   156 PWs)   bands (ev):

     3.1371   9.9736  12.7310  14.7670  15.6184  19.1252

          k = 0.8125-0.0625 0.9375 (   155 PWs)   bands (ev):

     5.2726   7.8940  10.7002  13.4253  17.3920  20.6542

          k = 0.6875 0.0625 0.8125 (   158 PWs)   bands (ev):

     6.0706   7.2685   8.8690  14.1001  18.5767  24.9161

          k = 0.5625 0.1875 0.6875 (   156 PWs)   bands (ev):

     4.5317   5.6946  12.4698  15.6437  20.2231  25.0204

          k = 0.4375 0.3125 0.5625 (   156 PWs)   bands (ev):

     2.5800   5.9698  16.8225  17.9296  21.2264  22.3261

          k =-0.0625-0.9375 0.0625 (   152 PWs)   bands (ev):

     5.0018   7.6260  12.4560  14.5264  15.3453  18.8711

          k =-0.1875-0.8125-0.0625 (   156 PWs)   bands (ev):

     3.4187  10.1806  11.0147  13.6942  17.6582  20.8935

          k =-0.3125-0.6875-0.1875 (   154 PWs)   bands (ev):

     2.5787   8.1372  13.7086  14.9375  19.3493  25.4139

          k =-0.0625-0.6875 0.0625 (   153 PWs)   bands (ev):

     1.4342  12.6231  13.3026  15.2508  16.1647  19.6199

          k =-0.1875-0.5625-0.0625 (   153 PWs)   bands (ev):

     0.2752  12.2804  14.8210  16.0004  18.9765  22.0308

          k =-0.0625-0.4375 0.0625 (   156 PWs)   bands (ev):

    -1.1951  15.1361  16.9534  17.9868  18.7912  21.1972

          k =-0.1875 0.1875 0.1875 (   153 PWs)   bands (ev):

    -2.0887  14.5488  20.1483  20.1483  23.6066  24.9663

          k =-0.3125 0.3125 0.0625 (   157 PWs)   bands (ev):

    -1.1954  13.1020  15.7428  21.9133  22.9049  23.9905

          k =-0.4375 0.4375-0.0625 (   153 PWs)   bands (ev):

     0.5665  10.4215  13.1888  19.4708  21.5741  24.5028

          k = 0.4375-0.4375 0.8125 (   158 PWs)   bands (ev):

     3.1466   6.5042  13.2850  17.7269  19.7085  24.8192

          k = 0.3125-0.3125 0.6875 (   157 PWs)   bands (ev):

     3.1448   6.5181  14.3061  16.7308  18.5817  25.8224

          k = 0.1875-0.1875 0.5625 (   152 PWs)   bands (ev):

     0.5665  10.5572  16.1158  16.4745  18.2043  23.9053

          k =-0.1875 0.4375 0.1875 (   155 PWs)   bands (ev):

    -0.6044  11.6384  17.4547  18.9513  19.4422  24.7053

          k =-0.3125 0.5625 0.0625 (   152 PWs)   bands (ev):

     0.8568  10.6858  13.4098  16.4869  21.5641  24.0506

          k = 0.5625-0.3125 0.9375 (   156 PWs)   bands (ev):

     3.1456   8.5329  11.2782  14.4211  22.8952  23.7682

          k = 0.4375-0.1875 0.8125 (   158 PWs)   bands (ev):

     5.0712   6.2444  11.8279  13.2123  21.6220  24.6753

          k = 0.3125-0.0625 0.6875 (   152 PWs)   bands (ev):

     2.2940   9.8721  12.4817  13.7496  20.8165  23.5814

          k =-0.1875 0.6875 0.1875 (   153 PWs)   bands (ev):

     2.0081   9.7355  13.2426  15.7425  17.3857  23.2530

          k = 0.6875-0.1875 1.0625 (   157 PWs)   bands (ev):

     3.9787   9.3097  10.7359  12.3272  20.3016  23.1785

          k = 0.5625-0.0625 0.9375 (   154 PWs)   bands (ev):

     6.6102   7.6984   9.2001  10.7993  22.9506  25.2485

          k = 0.4375 0.0625 0.8125 (   157 PWs)   bands (ev):

     4.8114   7.9896  10.5791  11.9558  23.1778  24.3548

          k =-0.1875-1.0625 0.1875 (   156 PWs)   bands (ev):

     5.5420   8.0830   9.0897  15.0142  16.5443  22.5668

          k =-0.3125-0.9375 0.0625 (   158 PWs)   bands (ev):

     5.8122   8.3616   9.1744  11.9778  20.0411  22.9638

          k =-0.1875-0.8125 0.1875 (   158 PWs)   bands (ev):

     3.6990   9.1503  10.6229  15.2559  16.8273  22.7986

          k =-0.3125 0.3125 0.3125 (   153 PWs)   bands (ev):

    -0.3106   9.7970  19.7030  19.7030  22.7280  22.7281

          k =-0.4375 0.4375 0.1875 (   152 PWs)   bands (ev):

     0.8570   8.6930  15.3707  19.7221  21.7239  22.7563

          k = 0.4375-0.4375 1.0625 (   158 PWs)   bands (ev):

     2.8640   8.2662  11.0434  17.4794  19.4731  26.6194

          k = 0.3125-0.3125 0.9375 (   156 PWs)   bands (ev):

     5.6308   6.6642   9.3962  15.9952  17.7918  27.2069

          k =-0.3125 0.5625 0.3125 (   154 PWs)   bands (ev):

     1.7228   7.3441  17.1457  17.4700  19.3027  24.5276

          k = 0.5625-0.3125 1.1875 (   157 PWs)   bands (ev):

     3.4269   6.7776  13.4481  14.7382  22.0546  23.2522

          k = 0.4375-0.1875 1.0625 (   155 PWs)   bands (ev):

     5.8935   6.9318   9.6355  12.8698  21.3854  26.2491

          k =-0.3125-1.1875 0.3125 (   155 PWs)   bands (ev):

     4.7962   5.9821  11.6750  16.2404  18.0607  27.3180

          k =-0.4375 0.4375 0.4375 (   156 PWs)   bands (ev):

     2.2952   5.6950  19.9741  19.9741  20.9838  20.9839

          k = 0.4375-0.4375 1.3125 (   158 PWs)   bands (ev):

     3.7006   4.8698  15.8676  18.2234  20.1329  23.2776

     the Fermi energy is     8.5081 ev

!    total energy              =      -4.18940228 Ry
     estimated scf accuracy    <       0.00000035 Ry
     smearing contrib. (-TS)   =       0.00009359 Ry
     internal energy E=F+TS    =      -4.18949587 Ry

     The total energy is F=E-TS. E is the sum of the following terms:
     one-electron contribution =       2.99683543 Ry
     hartree contribution      =       0.01021424 Ry
     xc contribution           =      -1.64756727 Ry
     ewald contribution        =      -5.54897827 Ry

     convergence has been achieved in   3 iterations

     Writing all to output data dir ./tmp/Al.save/

     init_run     :      0.21s CPU      0.22s WALL (       1 calls)
     electrons    :      0.30s CPU      0.31s WALL (       1 calls)

     Called by init_run:
     wfcinit      :      0.05s CPU      0.05s WALL (       1 calls)
     potinit      :      0.02s CPU      0.02s WALL (       1 calls)
     hinit0       :      0.14s CPU      0.14s WALL (       1 calls)

     Called by electrons:
     c_bands      :      0.24s CPU      0.26s WALL (       4 calls)
     sum_band     :      0.05s CPU      0.05s WALL (       4 calls)
     v_of_rho     :      0.00s CPU      0.00s WALL (       4 calls)
     mix_rho      :      0.00s CPU      0.00s WALL (       4 calls)

     Called by c_bands:
     init_us_2    :      0.01s CPU      0.01s WALL (     540 calls)
     init_us_2:cp :      0.01s CPU      0.01s WALL (     540 calls)
     cegterg      :      0.23s CPU      0.25s WALL (     240 calls)

     Called by *egterg:
     cdiaghg      :      0.03s CPU      0.03s WALL (     646 calls)
     h_psi        :      0.18s CPU      0.20s WALL (     766 calls)
     g_psi        :      0.00s CPU      0.00s WALL (     466 calls)

     Called by h_psi:
     h_psi:calbec :      0.01s CPU      0.01s WALL (     766 calls)
     vloc_psi     :      0.16s CPU      0.17s WALL (     766 calls)
     add_vuspsi   :      0.01s CPU      0.02s WALL (     766 calls)

     General routines
     calbec       :      0.01s CPU      0.01s WALL (     766 calls)
     fft          :      0.14s CPU      0.14s WALL (      18 calls)
     ffts         :      0.02s CPU      0.02s WALL (       8 calls)
     fftw         :      0.12s CPU      0.13s WALL (    9290 calls)
     interpolate  :      0.02s CPU      0.02s WALL (       4 calls)

     Parallel routines

     PWSCF        :      0.53s CPU      0.56s WALL


   This run was terminated on:  16:38:52   2Jun2023            

=------------------------------------------------------------------------------=
   JOB DONE.
=------------------------------------------------------------------------------=
