### Running on host: ip-172-31-10-78

     Program PWSCF v.7.2 starts on  2Jun2023 at 16:38:45 

     This program is part of the open-source Quantum ESPRESSO suite
     for quantum simulation of materials; please cite
         "P. Giannozzi et al., J. Phys.:Condens. Matter 21 395502 (2009);
         "P. Giannozzi et al., J. Phys.:Condens. Matter 29 465901 (2017);
         "P. Giannozzi et al., J. Chem. Phys. 152 154105 (2020);
          URL http://www.quantum-espresso.org", 
     in publications or presentations arising from this work. More details at
     http://www.quantum-espresso.org/quote

     Parallel version (MPI), running on     1 processors

     MPI processes distributed on     1 nodes
     379 MiB available memory on the printing compute node when the environment starts

     Reading input from eos.Al.d/eos.Al.estimator-2.in

     Current dimensions of program PWSCF are:
     Max number of different atomic species (ntypx) = 10
     Max number of k-points (npk) =  40000
     Max angular momentum in pseudopotentials (lmaxx) =  4
     Message from routine setup:
     no reason to have ecutrho>4*ecutwfc

     Subspace diagonalization in iterative solution of the eigenvalue problem:
     a serial algorithm will be used


     G-vector sticks info
     --------------------
     sticks:   dense  smooth     PW     G-vecs:    dense   smooth      PW
     Sum         253     127     55                 2741      965     283

     Using Slab Decomposition



     bravais-lattice index     =            2
     lattice parameter (alat)  =       6.8850  a.u.
     unit-cell volume          =      81.5928 (a.u.)^3
     number of atoms/cell      =            1
     number of atomic types    =            1
     number of electrons       =         3.00
     number of Kohn-Sham states=            6
     kinetic-energy cutoff     =      20.0000  Ry
     charge density cutoff     =     160.0000  Ry
     scf convergence threshold =      1.0E-06
     mixing beta               =       0.7000
     number of iterations used =            8  plain     mixing
     Exchange-correlation=  SLA  PZ   NOGX NOGC
                           (   1   1   0   0   0   0   0)

     celldm(1)=   6.885000  celldm(2)=   0.000000  celldm(3)=   0.000000
     celldm(4)=   0.000000  celldm(5)=   0.000000  celldm(6)=   0.000000

     crystal axes: (cart. coord. in units of alat)
               a(1) = (  -0.500000   0.000000   0.500000 )  
               a(2) = (   0.000000   0.500000   0.500000 )  
               a(3) = (  -0.500000   0.500000   0.000000 )  

     reciprocal axes: (cart. coord. in units 2 pi/alat)
               b(1) = ( -1.000000 -1.000000  1.000000 )  
               b(2) = (  1.000000  1.000000  1.000000 )  
               b(3) = ( -1.000000  1.000000 -1.000000 )  


     PseudoPot. # 1 for Al read from file:
     ./Al.pz-vbc.UPF
     MD5 check sum: c34c8b369e81ee50c191f4345b5f621b
     Pseudo is Norm-conserving, Zval =  3.0
     Generated by new atomic code, or converted to UPF format
     Using radial grid of  171 points,  2 beta functions with: 
                l(1) =   0
                l(2) =   1

     atomic species   valence    mass     pseudopotential
        Al             3.00    26.98000     Al( 1.00)

     48 Sym. Ops., with inversion, found



   Cartesian axes

     site n.     atom                  positions (alat units)
         1           Al  tau(   1) = (   0.0000000   0.0000000   0.0000000  )

     number of k points=    60  Marzari-Vanderbilt smearing, width (Ry)=  0.0200
                       cart. coord. in units 2pi/alat
        k(    1) = (  -0.0625000   0.0625000   0.0625000), wk =   0.0078125
        k(    2) = (  -0.1875000   0.1875000  -0.0625000), wk =   0.0234375
        k(    3) = (  -0.3125000   0.3125000  -0.1875000), wk =   0.0234375
        k(    4) = (  -0.4375000   0.4375000  -0.3125000), wk =   0.0234375
        k(    5) = (   0.4375000  -0.4375000   0.5625000), wk =   0.0234375
        k(    6) = (   0.3125000  -0.3125000   0.4375000), wk =   0.0234375
        k(    7) = (   0.1875000  -0.1875000   0.3125000), wk =   0.0234375
        k(    8) = (   0.0625000  -0.0625000   0.1875000), wk =   0.0234375
        k(    9) = (  -0.0625000   0.3125000   0.0625000), wk =   0.0234375
        k(   10) = (  -0.1875000   0.4375000  -0.0625000), wk =   0.0468750
        k(   11) = (  -0.3125000   0.5625000  -0.1875000), wk =   0.0468750
        k(   12) = (   0.5625000  -0.3125000   0.6875000), wk =   0.0468750
        k(   13) = (   0.4375000  -0.1875000   0.5625000), wk =   0.0468750
        k(   14) = (   0.3125000  -0.0625000   0.4375000), wk =   0.0468750
        k(   15) = (   0.1875000   0.0625000   0.3125000), wk =   0.0468750
        k(   16) = (  -0.0625000   0.5625000   0.0625000), wk =   0.0234375
        k(   17) = (  -0.1875000   0.6875000  -0.0625000), wk =   0.0468750
        k(   18) = (   0.6875000  -0.1875000   0.8125000), wk =   0.0468750
        k(   19) = (   0.5625000  -0.0625000   0.6875000), wk =   0.0468750
        k(   20) = (   0.4375000   0.0625000   0.5625000), wk =   0.0468750
        k(   21) = (   0.3125000   0.1875000   0.4375000), wk =   0.0468750
        k(   22) = (  -0.0625000   0.8125000   0.0625000), wk =   0.0234375
        k(   23) = (   0.8125000  -0.0625000   0.9375000), wk =   0.0468750
        k(   24) = (   0.6875000   0.0625000   0.8125000), wk =   0.0468750
        k(   25) = (   0.5625000   0.1875000   0.6875000), wk =   0.0468750
        k(   26) = (   0.4375000   0.3125000   0.5625000), wk =   0.0468750
        k(   27) = (  -0.0625000  -0.9375000   0.0625000), wk =   0.0234375
        k(   28) = (  -0.1875000  -0.8125000  -0.0625000), wk =   0.0468750
        k(   29) = (  -0.3125000  -0.6875000  -0.1875000), wk =   0.0468750
        k(   30) = (  -0.0625000  -0.6875000   0.0625000), wk =   0.0234375
        k(   31) = (  -0.1875000  -0.5625000  -0.0625000), wk =   0.0468750
        k(   32) = (  -0.0625000  -0.4375000   0.0625000), wk =   0.0234375
        k(   33) = (  -0.1875000   0.1875000   0.1875000), wk =   0.0078125
        k(   34) = (  -0.3125000   0.3125000   0.0625000), wk =   0.0234375
        k(   35) = (  -0.4375000   0.4375000  -0.0625000), wk =   0.0234375
        k(   36) = (   0.4375000  -0.4375000   0.8125000), wk =   0.0234375
        k(   37) = (   0.3125000  -0.3125000   0.6875000), wk =   0.0234375
        k(   38) = (   0.1875000  -0.1875000   0.5625000), wk =   0.0234375
        k(   39) = (  -0.1875000   0.4375000   0.1875000), wk =   0.0234375
        k(   40) = (  -0.3125000   0.5625000   0.0625000), wk =   0.0468750
        k(   41) = (   0.5625000  -0.3125000   0.9375000), wk =   0.0468750
        k(   42) = (   0.4375000  -0.1875000   0.8125000), wk =   0.0468750
        k(   43) = (   0.3125000  -0.0625000   0.6875000), wk =   0.0468750
        k(   44) = (  -0.1875000   0.6875000   0.1875000), wk =   0.0234375
        k(   45) = (   0.6875000  -0.1875000   1.0625000), wk =   0.0468750
        k(   46) = (   0.5625000  -0.0625000   0.9375000), wk =   0.0468750
        k(   47) = (   0.4375000   0.0625000   0.8125000), wk =   0.0468750
        k(   48) = (  -0.1875000  -1.0625000   0.1875000), wk =   0.0234375
        k(   49) = (  -0.3125000  -0.9375000   0.0625000), wk =   0.0468750
        k(   50) = (  -0.1875000  -0.8125000   0.1875000), wk =   0.0234375
        k(   51) = (  -0.3125000   0.3125000   0.3125000), wk =   0.0078125
        k(   52) = (  -0.4375000   0.4375000   0.1875000), wk =   0.0234375
        k(   53) = (   0.4375000  -0.4375000   1.0625000), wk =   0.0234375
        k(   54) = (   0.3125000  -0.3125000   0.9375000), wk =   0.0234375
        k(   55) = (  -0.3125000   0.5625000   0.3125000), wk =   0.0234375
        k(   56) = (   0.5625000  -0.3125000   1.1875000), wk =   0.0468750
        k(   57) = (   0.4375000  -0.1875000   1.0625000), wk =   0.0468750
        k(   58) = (  -0.3125000  -1.1875000   0.3125000), wk =   0.0234375
        k(   59) = (  -0.4375000   0.4375000   0.4375000), wk =   0.0078125
        k(   60) = (   0.4375000  -0.4375000   1.3125000), wk =   0.0234375

     Dense  grid:     2741 G-vectors     FFT dimensions: (  20,  20,  20)

     Smooth grid:      965 G-vectors     FFT dimensions: (  15,  15,  15)

     Estimated max dynamical RAM per process >       2.51 MB

     Initial potential from superposition of free atoms

     starting charge       2.9979, renormalised to       3.0000

     negative rho (up, down):  4.292E-05 0.000E+00
     Starting wfcs are    9 randomized atomic wfcs

     total cpu time spent up to now is        0.2 secs

     Self-consistent Calculation

     iteration #  1     ecut=    20.00 Ry     beta= 0.70
     Davidson diagonalization with overlap
     ethr =  1.00E-02,  avg # of iterations =  3.6

     Threshold (ethr) on eigenvalues was too large:
     Diagonalizing with lowered threshold

     Davidson diagonalization with overlap
     ethr =  2.11E-04,  avg # of iterations =  1.9

     negative rho (up, down):  1.212E-05 0.000E+00

     total cpu time spent up to now is        0.4 secs

     total energy              =      -4.16743637 Ry
     estimated scf accuracy    <       0.00635331 Ry

     iteration #  2     ecut=    20.00 Ry     beta= 0.70
     Davidson diagonalization with overlap
     ethr =  2.12E-04,  avg # of iterations =  1.0

     negative rho (up, down):  1.117E-05 0.000E+00

     total cpu time spent up to now is        0.4 secs

     total energy              =      -4.16752269 Ry
     estimated scf accuracy    <       0.00052360 Ry

     iteration #  3     ecut=    20.00 Ry     beta= 0.70
     Davidson diagonalization with overlap
     ethr =  1.75E-05,  avg # of iterations =  1.6

     total cpu time spent up to now is        0.5 secs

     End of self-consistent calculation

          k =-0.0625 0.0625 0.0625 (   128 PWs)   bands (ev):

    -2.0335  23.8463  25.5064  25.5064  29.4331  29.4338

          k =-0.1875 0.1875-0.0625 (   125 PWs)   bands (ev):

    -1.3315  19.9165  22.8248  26.1665  29.6200  29.9128

          k =-0.3125 0.3125-0.1875 (   130 PWs)   bands (ev):

     0.3948  14.4298  21.9453  25.6683  27.2303  28.7644

          k =-0.4375 0.4375-0.3125 (   123 PWs)   bands (ev):

     3.0754   9.5578  21.8914  24.5161  26.2337  26.7639

          k = 0.4375-0.4375 0.5625 (   123 PWs)   bands (ev):

     5.2662   6.8193  22.5928  23.2482  25.4737  26.9815

          k = 0.3125-0.3125 0.4375 (   125 PWs)   bands (ev):

     2.0825  11.1003  22.7292  23.7044  25.4344  28.6291

          k = 0.1875-0.1875 0.3125 (   127 PWs)   bands (ev):

    -0.2908  16.2212  22.9841  24.4213  27.3851  29.9507

          k = 0.0625-0.0625 0.1875 (   123 PWs)   bands (ev):

    -1.6817  21.9042  23.9766  24.9150  28.7152  30.4188

          k =-0.0625 0.3125 0.0625 (   128 PWs)   bands (ev):

    -0.9830  20.0957  22.4175  23.3503  26.4108  28.0746

          k =-0.1875 0.4375-0.0625 (   129 PWs)   bands (ev):

     0.3951  16.5680  19.7955  23.1974  24.4066  28.4565

          k =-0.3125 0.5625-0.1875 (   126 PWs)   bands (ev):

     2.7466  11.6624  19.1263  20.9407  24.7164  30.3175

          k = 0.5625-0.3125 0.6875 (   121 PWs)   bands (ev):

     5.8863   7.4574  18.4808  20.4400  25.4369  28.6242

          k = 0.4375-0.1875 0.5625 (   124 PWs)   bands (ev):

     3.7293  10.1363  17.8758  21.6685  26.9300  27.6557

          k = 0.3125-0.0625 0.4375 (   129 PWs)   bands (ev):

     1.0745  14.7640  18.1942  23.9078  27.1508  29.1714

          k = 0.1875 0.0625 0.3125 (   126 PWs)   bands (ev):

    -0.6362  18.1047  21.2506  25.4876  27.0482  29.4073

          k =-0.0625 0.5625 0.0625 (   128 PWs)   bands (ev):

     1.4130  17.2618  19.0109  20.0197  20.9500  25.8879

          k =-0.1875 0.6875-0.0625 (   123 PWs)   bands (ev):

     3.4056  14.3344  15.9743  18.3917  22.2716  26.7988

          k = 0.6875-0.1875 0.8125 (   121 PWs)   bands (ev):

     6.2640  10.0737  14.1736  18.3295  23.2428  30.7395

          k = 0.5625-0.0625 0.6875 (   121 PWs)   bands (ev):

     6.2691   9.9109  13.2897  19.4038  24.6157  32.1498

          k = 0.4375 0.0625 0.5625 (   124 PWs)   bands (ev):

     3.4039  12.0239  15.4793  21.3888  26.7111  29.3577

          k = 0.3125 0.1875 0.4375 (   129 PWs)   bands (ev):

     1.4120  12.9010  20.5281  23.9748  25.7773  29.2334

          k =-0.0625 0.8125 0.0625 (   119 PWs)   bands (ev):

     5.0184  12.7467  15.7434  18.7009  19.3687  24.4923

          k = 0.8125-0.0625 0.9375 (   118 PWs)   bands (ev):

     7.4137  10.3973  13.5796  17.3224  21.3692  25.9988

          k = 0.6875 0.0625 0.8125 (   121 PWs)   bands (ev):

     8.2575   9.6078  11.8441  17.9952  22.9374  30.5164

          k = 0.5625 0.1875 0.6875 (   124 PWs)   bands (ev):

     6.5043   8.0646  15.7187  19.7221  24.8990  30.3035

          k = 0.4375 0.3125 0.5625 (   124 PWs)   bands (ev):

     4.3703   8.3178  20.6145  22.2370  26.1040  27.2637

          k =-0.0625-0.9375 0.0625 (   116 PWs)   bands (ev):

     7.1140  10.1379  15.4142  18.4393  19.0645  24.1945

          k =-0.1875-0.8125-0.0625 (   121 PWs)   bands (ev):

     5.3348  12.8523  14.0026  17.6532  21.6700  26.2708

          k =-0.3125-0.6875-0.1875 (   122 PWs)   bands (ev):

     4.3773  10.7219  16.9186  19.0891  23.8449  31.0693

          k =-0.0625-0.6875 0.0625 (   126 PWs)   bands (ev):

     3.0778  15.6525  16.4621  19.2251  19.9831  25.0690

          k =-0.1875-0.5625-0.0625 (   126 PWs)   bands (ev):

     1.7488  15.3208  18.3137  20.1150  23.1744  27.5481

          k =-0.0625-0.4375 0.0625 (   130 PWs)   bands (ev):

     0.0531  18.5421  21.0855  21.7258  22.9241  26.8941

          k =-0.1875 0.1875 0.1875 (   123 PWs)   bands (ev):

    -0.9830  18.0125  24.5720  24.5721  28.6609  30.4983

          k =-0.3125 0.3125 0.0625 (   131 PWs)   bands (ev):

     0.0526  16.2921  19.6584  26.7440  27.5446  29.0962

          k =-0.4375 0.4375-0.0625 (   129 PWs)   bands (ev):

     2.0822  13.2440  16.7337  23.9347  26.4436  29.4569

          k = 0.4375-0.4375 0.8125 (   125 PWs)   bands (ev):

     5.0096   8.9115  16.7073  21.9580  24.3724  30.0535

          k = 0.3125-0.3125 0.6875 (   123 PWs)   bands (ev):

     5.0098   8.9288  17.7605  20.8460  23.1253  31.2480

          k = 0.1875-0.1875 0.5625 (   124 PWs)   bands (ev):

     2.0830  13.4501  19.6361  20.5632  22.7119  29.4347

          k =-0.1875 0.4375 0.1875 (   128 PWs)   bands (ev):

     0.7357  14.6925  21.6374  22.5936  24.4159  30.3205

          k =-0.3125 0.5625 0.0625 (   126 PWs)   bands (ev):

     2.4155  13.5325  16.8871  20.6255  26.1390  29.6618

          k = 0.5625-0.3125 0.9375 (   121 PWs)   bands (ev):

     5.0176  11.1056  14.4101  18.4023  27.9998  28.6530

          k = 0.4375-0.1875 0.8125 (   119 PWs)   bands (ev):

     7.1132   8.6627  14.7571  17.2537  26.4382  29.9217

          k = 0.3125-0.0625 0.6875 (   123 PWs)   bands (ev):

     4.0557  12.5964  15.5137  17.8711  25.2851  29.1835

          k =-0.1875 0.6875 0.1875 (   122 PWs)   bands (ev):

     3.7314  12.4882  16.5245  19.7640  21.6460  28.7111

          k = 0.6875-0.1875 1.0625 (   122 PWs)   bands (ev):

     5.9618  11.9099  13.4987  16.3731  24.6981  28.7317

          k = 0.5625-0.0625 0.9375 (   115 PWs)   bands (ev):

     8.8591  10.1048  11.7205  14.7988  27.7829  30.9588

          k = 0.4375 0.0625 0.8125 (   118 PWs)   bands (ev):

     6.8836  10.4851  13.3015  15.9687  28.0642  29.6214

          k =-0.1875-1.0625 0.1875 (   120 PWs)   bands (ev):

     7.7076  10.4359  12.1198  18.9717  20.6052  27.9447

          k =-0.3125-0.9375 0.0625 (   120 PWs)   bands (ev):

     8.0073  10.7500  11.9849  15.8539  24.4014  28.4906

          k =-0.1875-0.8125 0.1875 (   124 PWs)   bands (ev):

     5.6481  11.7253  13.7176  19.2346  20.9520  28.2045

          k =-0.3125 0.3125 0.3125 (   120 PWs)   bands (ev):

     1.0748  12.6367  24.0846  24.0846  27.7738  27.7739

          k =-0.4375 0.4375 0.1875 (   126 PWs)   bands (ev):

     2.4152  11.3720  19.1248  24.1674  26.6150  27.6920

          k = 0.4375-0.4375 1.0625 (   124 PWs)   bands (ev):

     4.6976  10.8136  14.2639  21.6975  24.0869  32.0039

          k = 0.3125-0.3125 0.9375 (   120 PWs)   bands (ev):

     7.7309   9.0664  12.3965  20.0505  22.1394  33.0645

          k =-0.3125 0.5625 0.3125 (   123 PWs)   bands (ev):

     3.4034   9.8579  20.8670  21.6497  24.0759  29.7877

          k = 0.5625-0.3125 1.1875 (   121 PWs)   bands (ev):

     5.3269   9.2134  16.6441  18.8873  26.9658  28.2809

          k = 0.4375-0.1875 1.0625 (   119 PWs)   bands (ev):

     8.0303   9.3546  12.5290  16.7211  26.1601  31.6721

          k =-0.3125-1.1875 0.3125 (   123 PWs)   bands (ev):

     6.8054   8.3754  14.8518  20.3142  22.4723  33.1952

          k =-0.4375 0.4375 0.4375 (   123 PWs)   bands (ev):

     4.0481   8.0084  24.1718  24.1718  26.0296  26.0298

          k = 0.4375-0.4375 1.3125 (   127 PWs)   bands (ev):

     5.5765   7.1395  19.5906  22.4784  24.8956  28.3534

     the Fermi energy is    11.0653 ev

!    total energy              =      -4.16752743 Ry
     estimated scf accuracy    <       0.00000024 Ry
     smearing contrib. (-TS)   =       0.00021034 Ry
     internal energy E=F+TS    =      -4.16773777 Ry

     The total energy is F=E-TS. E is the sum of the following terms:
     one-electron contribution =       3.57920741 Ry
     hartree contribution      =       0.01757694 Ry
     xc contribution           =      -1.77123829 Ry
     ewald contribution        =      -5.99328382 Ry

     convergence has been achieved in   3 iterations


     Computing stress (Cartesian axis) and pressure

          total   stress  (Ry/bohr**3)                   (kbar)     P=      343.41
   0.00233444   0.00000000   0.00000000          343.41        0.00        0.00
   0.00000000   0.00233444  -0.00000000            0.00      343.41       -0.00
   0.00000000  -0.00000000   0.00233444            0.00       -0.00      343.41


     Writing all to output data dir ./tmp/Al.save/

     init_run     :      0.20s CPU      0.20s WALL (       1 calls)
     electrons    :      0.24s CPU      0.26s WALL (       1 calls)
     stress       :      0.02s CPU      0.03s WALL (       1 calls)

     Called by init_run:
     wfcinit      :      0.05s CPU      0.05s WALL (       1 calls)
     potinit      :      0.02s CPU      0.02s WALL (       1 calls)
     hinit0       :      0.13s CPU      0.13s WALL (       1 calls)

     Called by electrons:
     c_bands      :      0.21s CPU      0.22s WALL (       4 calls)
     sum_band     :      0.03s CPU      0.03s WALL (       4 calls)
     v_of_rho     :      0.00s CPU      0.00s WALL (       4 calls)
     mix_rho      :      0.00s CPU      0.00s WALL (       4 calls)

     Called by c_bands:
     init_us_2    :      0.01s CPU      0.01s WALL (     600 calls)
     init_us_2:cp :      0.01s CPU      0.01s WALL (     600 calls)
     cegterg      :      0.20s CPU      0.21s WALL (     240 calls)

     Called by *egterg:
     cdiaghg      :      0.03s CPU      0.03s WALL (     663 calls)
     h_psi        :      0.16s CPU      0.17s WALL (     783 calls)
     g_psi        :      0.00s CPU      0.00s WALL (     483 calls)

     Called by h_psi:
     h_psi:calbec :      0.01s CPU      0.01s WALL (     783 calls)
     vloc_psi     :      0.14s CPU      0.15s WALL (     783 calls)
     add_vuspsi   :      0.01s CPU      0.01s WALL (     783 calls)

     General routines
     calbec       :      0.01s CPU      0.01s WALL (     843 calls)
     fft          :      0.12s CPU      0.12s WALL (      21 calls)
     ffts         :      0.02s CPU      0.02s WALL (       8 calls)
     fftw         :      0.12s CPU      0.12s WALL (    9414 calls)
     interpolate  :      0.02s CPU      0.02s WALL (       4 calls)

     Parallel routines

     PWSCF        :      0.48s CPU      0.50s WALL


   This run was terminated on:  16:38:46   2Jun2023            

=------------------------------------------------------------------------------=
   JOB DONE.
=------------------------------------------------------------------------------=
