### Running on host: ip-172-31-10-78

     Program PWSCF v.7.2 starts on  2Jun2023 at 16:38:54 

     This program is part of the open-source Quantum ESPRESSO suite
     for quantum simulation of materials; please cite
         "P. Giannozzi et al., J. Phys.:Condens. Matter 21 395502 (2009);
         "P. Giannozzi et al., J. Phys.:Condens. Matter 29 465901 (2017);
         "P. Giannozzi et al., J. Chem. Phys. 152 154105 (2020);
          URL http://www.quantum-espresso.org", 
     in publications or presentations arising from this work. More details at
     http://www.quantum-espresso.org/quote

     Parallel version (MPI), running on     1 processors

     MPI processes distributed on     1 nodes
     377 MiB available memory on the printing compute node when the environment starts

     Reading input from eos.Al.d/eos.Al.10.in

     Current dimensions of program PWSCF are:
     Max number of different atomic species (ntypx) = 10
     Max number of k-points (npk) =  40000
     Max angular momentum in pseudopotentials (lmaxx) =  4
     Message from routine setup:
     no reason to have ecutrho>4*ecutwfc

     Subspace diagonalization in iterative solution of the eigenvalue problem:
     a serial algorithm will be used


     G-vector sticks info
     --------------------
     sticks:   dense  smooth     PW     G-vecs:    dense   smooth      PW
     Sum         313     163     61                 3695     1291     331

     Using Slab Decomposition



     bravais-lattice index     =            2
     lattice parameter (alat)  =       7.5645  a.u.
     unit-cell volume          =     108.2130 (a.u.)^3
     number of atoms/cell      =            1
     number of atomic types    =            1
     number of electrons       =         3.00
     number of Kohn-Sham states=            6
     kinetic-energy cutoff     =      20.0000  Ry
     charge density cutoff     =     160.0000  Ry
     scf convergence threshold =      1.0E-06
     mixing beta               =       0.7000
     number of iterations used =            8  plain     mixing
     Exchange-correlation=  SLA  PZ   NOGX NOGC
                           (   1   1   0   0   0   0   0)

     celldm(1)=   7.564492  celldm(2)=   0.000000  celldm(3)=   0.000000
     celldm(4)=   0.000000  celldm(5)=   0.000000  celldm(6)=   0.000000

     crystal axes: (cart. coord. in units of alat)
               a(1) = (  -0.500000   0.000000   0.500000 )  
               a(2) = (   0.000000   0.500000   0.500000 )  
               a(3) = (  -0.500000   0.500000   0.000000 )  

     reciprocal axes: (cart. coord. in units 2 pi/alat)
               b(1) = ( -1.000000 -1.000000  1.000000 )  
               b(2) = (  1.000000  1.000000  1.000000 )  
               b(3) = ( -1.000000  1.000000 -1.000000 )  


     PseudoPot. # 1 for Al read from file:
     ./Al.pz-vbc.UPF
     MD5 check sum: c34c8b369e81ee50c191f4345b5f621b
     Pseudo is Norm-conserving, Zval =  3.0
     Generated by new atomic code, or converted to UPF format
     Using radial grid of  171 points,  2 beta functions with: 
                l(1) =   0
                l(2) =   1

     atomic species   valence    mass     pseudopotential
        Al             3.00    26.98000     Al( 1.00)

     48 Sym. Ops., with inversion, found



   Cartesian axes

     site n.     atom                  positions (alat units)
         1           Al  tau(   1) = (   0.0000000   0.0000000   0.0000000  )

     number of k points=    60  Marzari-Vanderbilt smearing, width (Ry)=  0.0200
                       cart. coord. in units 2pi/alat
        k(    1) = (  -0.0625000   0.0625000   0.0625000), wk =   0.0078125
        k(    2) = (  -0.1875000   0.1875000  -0.0625000), wk =   0.0234375
        k(    3) = (  -0.3125000   0.3125000  -0.1875000), wk =   0.0234375
        k(    4) = (  -0.4375000   0.4375000  -0.3125000), wk =   0.0234375
        k(    5) = (   0.4375000  -0.4375000   0.5625000), wk =   0.0234375
        k(    6) = (   0.3125000  -0.3125000   0.4375000), wk =   0.0234375
        k(    7) = (   0.1875000  -0.1875000   0.3125000), wk =   0.0234375
        k(    8) = (   0.0625000  -0.0625000   0.1875000), wk =   0.0234375
        k(    9) = (  -0.0625000   0.3125000   0.0625000), wk =   0.0234375
        k(   10) = (  -0.1875000   0.4375000  -0.0625000), wk =   0.0468750
        k(   11) = (  -0.3125000   0.5625000  -0.1875000), wk =   0.0468750
        k(   12) = (   0.5625000  -0.3125000   0.6875000), wk =   0.0468750
        k(   13) = (   0.4375000  -0.1875000   0.5625000), wk =   0.0468750
        k(   14) = (   0.3125000  -0.0625000   0.4375000), wk =   0.0468750
        k(   15) = (   0.1875000   0.0625000   0.3125000), wk =   0.0468750
        k(   16) = (  -0.0625000   0.5625000   0.0625000), wk =   0.0234375
        k(   17) = (  -0.1875000   0.6875000  -0.0625000), wk =   0.0468750
        k(   18) = (   0.6875000  -0.1875000   0.8125000), wk =   0.0468750
        k(   19) = (   0.5625000  -0.0625000   0.6875000), wk =   0.0468750
        k(   20) = (   0.4375000   0.0625000   0.5625000), wk =   0.0468750
        k(   21) = (   0.3125000   0.1875000   0.4375000), wk =   0.0468750
        k(   22) = (  -0.0625000   0.8125000   0.0625000), wk =   0.0234375
        k(   23) = (   0.8125000  -0.0625000   0.9375000), wk =   0.0468750
        k(   24) = (   0.6875000   0.0625000   0.8125000), wk =   0.0468750
        k(   25) = (   0.5625000   0.1875000   0.6875000), wk =   0.0468750
        k(   26) = (   0.4375000   0.3125000   0.5625000), wk =   0.0468750
        k(   27) = (  -0.0625000  -0.9375000   0.0625000), wk =   0.0234375
        k(   28) = (  -0.1875000  -0.8125000  -0.0625000), wk =   0.0468750
        k(   29) = (  -0.3125000  -0.6875000  -0.1875000), wk =   0.0468750
        k(   30) = (  -0.0625000  -0.6875000   0.0625000), wk =   0.0234375
        k(   31) = (  -0.1875000  -0.5625000  -0.0625000), wk =   0.0468750
        k(   32) = (  -0.0625000  -0.4375000   0.0625000), wk =   0.0234375
        k(   33) = (  -0.1875000   0.1875000   0.1875000), wk =   0.0078125
        k(   34) = (  -0.3125000   0.3125000   0.0625000), wk =   0.0234375
        k(   35) = (  -0.4375000   0.4375000  -0.0625000), wk =   0.0234375
        k(   36) = (   0.4375000  -0.4375000   0.8125000), wk =   0.0234375
        k(   37) = (   0.3125000  -0.3125000   0.6875000), wk =   0.0234375
        k(   38) = (   0.1875000  -0.1875000   0.5625000), wk =   0.0234375
        k(   39) = (  -0.1875000   0.4375000   0.1875000), wk =   0.0234375
        k(   40) = (  -0.3125000   0.5625000   0.0625000), wk =   0.0468750
        k(   41) = (   0.5625000  -0.3125000   0.9375000), wk =   0.0468750
        k(   42) = (   0.4375000  -0.1875000   0.8125000), wk =   0.0468750
        k(   43) = (   0.3125000  -0.0625000   0.6875000), wk =   0.0468750
        k(   44) = (  -0.1875000   0.6875000   0.1875000), wk =   0.0234375
        k(   45) = (   0.6875000  -0.1875000   1.0625000), wk =   0.0468750
        k(   46) = (   0.5625000  -0.0625000   0.9375000), wk =   0.0468750
        k(   47) = (   0.4375000   0.0625000   0.8125000), wk =   0.0468750
        k(   48) = (  -0.1875000  -1.0625000   0.1875000), wk =   0.0234375
        k(   49) = (  -0.3125000  -0.9375000   0.0625000), wk =   0.0468750
        k(   50) = (  -0.1875000  -0.8125000   0.1875000), wk =   0.0234375
        k(   51) = (  -0.3125000   0.3125000   0.3125000), wk =   0.0078125
        k(   52) = (  -0.4375000   0.4375000   0.1875000), wk =   0.0234375
        k(   53) = (   0.4375000  -0.4375000   1.0625000), wk =   0.0234375
        k(   54) = (   0.3125000  -0.3125000   0.9375000), wk =   0.0234375
        k(   55) = (  -0.3125000   0.5625000   0.3125000), wk =   0.0234375
        k(   56) = (   0.5625000  -0.3125000   1.1875000), wk =   0.0468750
        k(   57) = (   0.4375000  -0.1875000   1.0625000), wk =   0.0468750
        k(   58) = (  -0.3125000  -1.1875000   0.3125000), wk =   0.0234375
        k(   59) = (  -0.4375000   0.4375000   0.4375000), wk =   0.0078125
        k(   60) = (   0.4375000  -0.4375000   1.3125000), wk =   0.0234375

     Dense  grid:     3695 G-vectors     FFT dimensions: (  24,  24,  24)

     Smooth grid:     1291 G-vectors     FFT dimensions: (  15,  15,  15)

     Estimated max dynamical RAM per process >       3.54 MB

     Initial potential from superposition of free atoms

     starting charge       2.9979, renormalised to       3.0000

     negative rho (up, down):  4.755E-05 0.000E+00
     Starting wfcs are    9 randomized atomic wfcs

     total cpu time spent up to now is        0.2 secs

     Self-consistent Calculation

     iteration #  1     ecut=    20.00 Ry     beta= 0.70
     Davidson diagonalization with overlap
     ethr =  1.00E-02,  avg # of iterations =  2.8

     Threshold (ethr) on eigenvalues was too large:
     Diagonalizing with lowered threshold

     Davidson diagonalization with overlap
     ethr =  1.94E-04,  avg # of iterations =  2.2

     negative rho (up, down):  1.358E-05 0.000E+00

     total cpu time spent up to now is        0.4 secs

     total energy              =      -4.18907050 Ry
     estimated scf accuracy    <       0.00579894 Ry

     iteration #  2     ecut=    20.00 Ry     beta= 0.70
     Davidson diagonalization with overlap
     ethr =  1.93E-04,  avg # of iterations =  1.0

     negative rho (up, down):  6.542E-06 0.000E+00

     total cpu time spent up to now is        0.5 secs

     total energy              =      -4.18910878 Ry
     estimated scf accuracy    <       0.00043969 Ry

     iteration #  3     ecut=    20.00 Ry     beta= 0.70
     Davidson diagonalization with overlap
     ethr =  1.47E-05,  avg # of iterations =  1.8

     total cpu time spent up to now is        0.5 secs

     End of self-consistent calculation

          k =-0.0625 0.0625 0.0625 (   169 PWs)   bands (ev):

    -3.1707  18.8731  20.3139  20.3140  22.5524  22.5524

          k =-0.1875 0.1875-0.0625 (   164 PWs)   bands (ev):

    -2.5888  15.5187  17.6975  20.8328  22.7582  23.2305

          k =-0.3125 0.3125-0.1875 (   159 PWs)   bands (ev):

    -1.1491  10.7740  16.9631  20.1985  21.2873  22.7648

          k =-0.4375 0.4375-0.3125 (   163 PWs)   bands (ev):

     1.1120   6.5779  16.9761  19.2774  20.3124  20.8629

          k = 0.4375-0.4375 0.5625 (   164 PWs)   bands (ev):

     3.0480   4.1565  17.7263  18.0781  19.6027  21.0307

          k = 0.3125-0.3125 0.4375 (   156 PWs)   bands (ev):

     0.2703   7.9067  17.5849  19.0677  19.2105  22.4810

          k = 0.1875-0.1875 0.3125 (   160 PWs)   bands (ev):

    -1.7225  12.3130  17.8055  19.2376  21.3750  23.5856

          k = 0.0625-0.0625 0.1875 (   168 PWs)   bands (ev):

    -2.8793  17.2160  18.7336  19.8374  21.8699  23.9113

          k =-0.0625 0.3125 0.0625 (   164 PWs)   bands (ev):

    -2.2991  15.7118  17.3101  18.4993  20.8246  21.3630

          k =-0.1875 0.4375-0.0625 (   161 PWs)   bands (ev):

    -1.1488  12.7009  15.1081  18.1499  19.1240  21.7805

          k =-0.3125 0.5625-0.1875 (   160 PWs)   bands (ev):

     0.8324   8.4134  14.7782  15.9110  19.1634  23.8777

          k = 0.5625-0.3125 0.6875 (   165 PWs)   bands (ev):

     3.5900   4.7002  14.3160  15.3498  19.7331  22.5119

          k = 0.4375-0.1875 0.5625 (   161 PWs)   bands (ev):

     1.6697   7.0924  13.5936  16.5769  20.9575  21.7966

          k = 0.3125-0.0625 0.4375 (   160 PWs)   bands (ev):

    -0.5788  11.1530  13.7148  18.5554  21.5077  22.8895

          k = 0.1875 0.0625 0.3125 (   162 PWs)   bands (ev):

    -2.0104  13.9920  16.3208  20.2403  21.1646  22.7734

          k =-0.0625 0.5625 0.0625 (   162 PWs)   bands (ev):

    -0.2945  13.3913  14.8573  15.1657  16.2152  19.2560

          k =-0.1875 0.6875-0.0625 (   162 PWs)   bands (ev):

     1.3904  10.8641  12.2537  13.4536  17.3721  20.3011

          k = 0.6875-0.1875 0.8125 (   166 PWs)   bands (ev):

     3.8547   7.0814  10.4902  13.5903  17.9609  23.9932

          k = 0.5625-0.0625 0.6875 (   167 PWs)   bands (ev):

     3.8654   6.9678   9.5867  14.5830  19.0599  25.6112

          k = 0.4375 0.0625 0.5625 (   164 PWs)   bands (ev):

     1.3913   8.8033  11.4314  16.3323  20.8157  23.3592

          k = 0.3125 0.1875 0.4375 (   158 PWs)   bands (ev):

    -0.2950   9.4684  15.7853  18.7854  19.9802  23.0322

          k =-0.0625 0.8125 0.0625 (   166 PWs)   bands (ev):

     2.7651   9.3968  12.1034  13.9805  14.8883  18.0877

          k = 0.8125-0.0625 0.9375 (   167 PWs)   bands (ev):

     4.8479   7.3697  10.1142  12.6617  16.5978  19.6122

          k = 0.6875 0.0625 0.8125 (   166 PWs)   bands (ev):

     5.6323   6.7922   8.2653  13.3338  17.7089  23.8043

          k = 0.5625 0.1875 0.6875 (   168 PWs)   bands (ev):

     4.1305   5.2291  11.7982  14.8352  19.2934  23.9602

          k = 0.4375 0.3125 0.5625 (   165 PWs)   bands (ev):

     2.2240   5.5044  16.0257  17.0594  20.2607  21.3529

          k =-0.0625-0.9375 0.0625 (   162 PWs)   bands (ev):

     4.5838   7.1031  11.8399  13.7456  14.6225  17.8423

          k =-0.1875-0.8125-0.0625 (   166 PWs)   bands (ev):

     3.0385   9.6221  10.4040  12.9193  16.8568  19.8449

          k =-0.3125-0.6875-0.1875 (   165 PWs)   bands (ev):

     2.2223   7.6165  13.0345  14.1214  18.4557  24.2860

          k =-0.0625-0.6875 0.0625 (   164 PWs)   bands (ev):

     1.1113  11.9877  12.6445  14.4539  15.4193  18.5674

          k =-0.1875-0.5625-0.0625 (   162 PWs)   bands (ev):

    -0.0118  11.6587  14.0857  15.1822  18.1355  20.9578

          k =-0.0625-0.4375 0.0625 (   163 PWs)   bands (ev):

    -1.4350  14.4311  16.1182  17.2265  17.9230  20.1151

          k =-0.1875 0.1875 0.1875 (   165 PWs)   bands (ev):

    -2.2992  13.8409  19.2346  19.2347  22.5707  23.8438

          k =-0.3125 0.3125 0.0625 (   159 PWs)   bands (ev):

    -1.4353  12.4517  14.9453  20.8709  21.9990  22.9620

          k =-0.4375 0.4375-0.0625 (   161 PWs)   bands (ev):

     0.2703   9.8502  12.4662  18.5535  20.6086  23.4998

          k = 0.4375-0.4375 0.8125 (   164 PWs)   bands (ev):

     2.7749   6.0258  12.5824  16.8655  18.7944  23.7735

          k = 0.3125-0.3125 0.6875 (   164 PWs)   bands (ev):

     2.7733   6.0383  13.5865  15.8979  17.6989  24.7369

          k = 0.1875-0.1875 0.5625 (   161 PWs)   bands (ev):

     0.2705   9.9692  15.3639  15.6497  17.3318  22.8160

          k =-0.1875 0.4375 0.1875 (   159 PWs)   bands (ev):

    -0.8634  11.0170  16.6069  18.2101  18.4327  23.5967

          k =-0.3125 0.5625 0.0625 (   161 PWs)   bands (ev):

     0.5518  10.1081  12.6917  15.6611  20.6396  22.9418

          k = 0.5625-0.3125 0.9375 (   165 PWs)   bands (ev):

     2.7733   8.0159  10.6294  13.6420  21.8673  22.7840

          k = 0.4375-0.1875 0.8125 (   165 PWs)   bands (ev):

     4.6569   5.7660  11.2153  12.4296  20.6552  23.6214

          k = 0.3125-0.0625 0.6875 (   163 PWs)   bands (ev):

     1.9456   9.3202  11.8433  12.9482  19.9143  22.4767

          k =-0.1875 0.6875 0.1875 (   163 PWs)   bands (ev):

     1.6684   9.1756  12.5575  14.9342  16.5536  22.1781

          k = 0.6875-0.1875 1.0625 (   163 PWs)   bands (ev):

     3.5837   8.7823  10.1590  11.5446  19.4159  22.0843

          k = 0.5625-0.0625 0.9375 (   163 PWs)   bands (ev):

     6.1576   7.2139   8.6726  10.0332  21.9719  24.1087

          k = 0.4375 0.0625 0.8125 (   161 PWs)   bands (ev):

     4.3955   7.4891  10.0082  11.1852  22.1843  23.2983

          k =-0.1875-1.0625 0.1875 (   170 PWs)   bands (ev):

     5.1111   7.5887   8.4844  14.2204  15.7472  21.5087

          k =-0.3125-0.9375 0.0625 (   165 PWs)   bands (ev):

     5.3750   7.8595   8.6032  11.2340  19.1633  21.8756

          k =-0.1875-0.8125 0.1875 (   166 PWs)   bands (ev):

     3.3115   8.6231   9.9900  14.4582  16.0188  21.7350

          k =-0.3125 0.3125 0.3125 (   153 PWs)   bands (ev):

    -0.5789   9.2244  18.7914  18.7916  21.7387  21.7388

          k =-0.4375 0.4375 0.1875 (   161 PWs)   bands (ev):

     0.5516   8.1541  14.6002  18.7968  20.7549  21.7851

          k = 0.4375-0.4375 1.0625 (   165 PWs)   bands (ev):

     2.4998   7.7552  10.3876  16.6237  18.5673  25.5269

          k = 0.3125-0.3125 0.9375 (   168 PWs)   bands (ev):

     5.2021   6.1879   8.7877  15.1786  16.9408  26.0338

          k =-0.3125 0.5625 0.3125 (   162 PWs)   bands (ev):

     1.3913   6.8413  16.3517  16.6193  18.3881  23.4804

          k = 0.5625-0.3125 1.1875 (   166 PWs)   bands (ev):

     3.0474   6.2922  12.7781  13.9271  21.0651  22.2510

          k = 0.4375-0.1875 1.0625 (   166 PWs)   bands (ev):

     5.4581   6.4502   9.0362  12.1260  20.4273  25.1477

          k =-0.3125-1.1875 0.3125 (   168 PWs)   bands (ev):

     4.3885   5.5092  11.0224  15.4183  17.1991  26.1369

          k =-0.4375 0.4375 0.4375 (   162 PWs)   bands (ev):

     1.9476   5.2374  19.0464  19.0464  20.0519  20.0519

          k = 0.4375-0.4375 1.3125 (   164 PWs)   bands (ev):

     3.3202   4.4279  15.0936  17.3502  19.2044  22.2738

     the Fermi energy is     7.9883 ev

!    total energy              =      -4.18911521 Ry
     estimated scf accuracy    <       0.00000037 Ry
     smearing contrib. (-TS)   =       0.00005985 Ry
     internal energy E=F+TS    =      -4.18917506 Ry

     The total energy is F=E-TS. E is the sum of the following terms:
     one-electron contribution =       2.87828325 Ry
     hartree contribution      =       0.00926450 Ry
     xc contribution           =      -1.62179501 Ry
     ewald contribution        =      -5.45492779 Ry

     convergence has been achieved in   3 iterations

     Writing all to output data dir ./tmp/Al.save/

     init_run     :      0.21s CPU      0.22s WALL (       1 calls)
     electrons    :      0.29s CPU      0.30s WALL (       1 calls)

     Called by init_run:
     wfcinit      :      0.05s CPU      0.05s WALL (       1 calls)
     potinit      :      0.02s CPU      0.02s WALL (       1 calls)
     hinit0       :      0.14s CPU      0.14s WALL (       1 calls)

     Called by electrons:
     c_bands      :      0.24s CPU      0.25s WALL (       4 calls)
     sum_band     :      0.04s CPU      0.04s WALL (       4 calls)
     v_of_rho     :      0.00s CPU      0.00s WALL (       4 calls)
     mix_rho      :      0.00s CPU      0.00s WALL (       4 calls)

     Called by c_bands:
     init_us_2    :      0.01s CPU      0.01s WALL (     540 calls)
     init_us_2:cp :      0.01s CPU      0.01s WALL (     540 calls)
     cegterg      :      0.23s CPU      0.24s WALL (     240 calls)

     Called by *egterg:
     cdiaghg      :      0.03s CPU      0.03s WALL (     646 calls)
     h_psi        :      0.18s CPU      0.19s WALL (     766 calls)
     g_psi        :      0.00s CPU      0.00s WALL (     466 calls)

     Called by h_psi:
     h_psi:calbec :      0.01s CPU      0.01s WALL (     766 calls)
     vloc_psi     :      0.16s CPU      0.17s WALL (     766 calls)
     add_vuspsi   :      0.01s CPU      0.01s WALL (     766 calls)

     General routines
     calbec       :      0.01s CPU      0.01s WALL (     766 calls)
     fft          :      0.14s CPU      0.14s WALL (      18 calls)
     ffts         :      0.02s CPU      0.02s WALL (       8 calls)
     fftw         :      0.12s CPU      0.12s WALL (    9272 calls)
     interpolate  :      0.02s CPU      0.02s WALL (       4 calls)

     Parallel routines

     PWSCF        :      0.52s CPU      0.54s WALL


   This run was terminated on:  16:38:54   2Jun2023            

=------------------------------------------------------------------------------=
   JOB DONE.
=------------------------------------------------------------------------------=
