### Running on host: ip-172-31-10-78

     Program PWSCF v.7.2 starts on  2Jun2023 at 16:38:47 

     This program is part of the open-source Quantum ESPRESSO suite
     for quantum simulation of materials; please cite
         "P. Giannozzi et al., J. Phys.:Condens. Matter 21 395502 (2009);
         "P. Giannozzi et al., J. Phys.:Condens. Matter 29 465901 (2017);
         "P. Giannozzi et al., J. Chem. Phys. 152 154105 (2020);
          URL http://www.quantum-espresso.org", 
     in publications or presentations arising from this work. More details at
     http://www.quantum-espresso.org/quote

     Parallel version (MPI), running on     1 processors

     MPI processes distributed on     1 nodes
     378 MiB available memory on the printing compute node when the environment starts

     Reading input from eos.Al.d/eos.Al.2.in

     Current dimensions of program PWSCF are:
     Max number of different atomic species (ntypx) = 10
     Max number of k-points (npk) =  40000
     Max angular momentum in pseudopotentials (lmaxx) =  4
     Message from routine setup:
     no reason to have ecutrho>4*ecutwfc

     Subspace diagonalization in iterative solution of the eigenvalue problem:
     a serial algorithm will be used


     G-vector sticks info
     --------------------
     sticks:   dense  smooth     PW     G-vecs:    dense   smooth      PW
     Sum         295     151     61                 3215     1139     307

     Using Slab Decomposition



     bravais-lattice index     =            2
     lattice parameter (alat)  =       7.2226  a.u.
     unit-cell volume          =      94.1932 (a.u.)^3
     number of atoms/cell      =            1
     number of atomic types    =            1
     number of electrons       =         3.00
     number of Kohn-Sham states=            6
     kinetic-energy cutoff     =      20.0000  Ry
     charge density cutoff     =     160.0000  Ry
     scf convergence threshold =      1.0E-06
     mixing beta               =       0.7000
     number of iterations used =            8  plain     mixing
     Exchange-correlation=  SLA  PZ   NOGX NOGC
                           (   1   1   0   0   0   0   0)

     celldm(1)=   7.222594  celldm(2)=   0.000000  celldm(3)=   0.000000
     celldm(4)=   0.000000  celldm(5)=   0.000000  celldm(6)=   0.000000

     crystal axes: (cart. coord. in units of alat)
               a(1) = (  -0.500000   0.000000   0.500000 )  
               a(2) = (   0.000000   0.500000   0.500000 )  
               a(3) = (  -0.500000   0.500000   0.000000 )  

     reciprocal axes: (cart. coord. in units 2 pi/alat)
               b(1) = ( -1.000000 -1.000000  1.000000 )  
               b(2) = (  1.000000  1.000000  1.000000 )  
               b(3) = ( -1.000000  1.000000 -1.000000 )  


     PseudoPot. # 1 for Al read from file:
     ./Al.pz-vbc.UPF
     MD5 check sum: c34c8b369e81ee50c191f4345b5f621b
     Pseudo is Norm-conserving, Zval =  3.0
     Generated by new atomic code, or converted to UPF format
     Using radial grid of  171 points,  2 beta functions with: 
                l(1) =   0
                l(2) =   1

     atomic species   valence    mass     pseudopotential
        Al             3.00    26.98000     Al( 1.00)

     48 Sym. Ops., with inversion, found



   Cartesian axes

     site n.     atom                  positions (alat units)
         1           Al  tau(   1) = (   0.0000000   0.0000000   0.0000000  )

     number of k points=    60  Marzari-Vanderbilt smearing, width (Ry)=  0.0200
                       cart. coord. in units 2pi/alat
        k(    1) = (  -0.0625000   0.0625000   0.0625000), wk =   0.0078125
        k(    2) = (  -0.1875000   0.1875000  -0.0625000), wk =   0.0234375
        k(    3) = (  -0.3125000   0.3125000  -0.1875000), wk =   0.0234375
        k(    4) = (  -0.4375000   0.4375000  -0.3125000), wk =   0.0234375
        k(    5) = (   0.4375000  -0.4375000   0.5625000), wk =   0.0234375
        k(    6) = (   0.3125000  -0.3125000   0.4375000), wk =   0.0234375
        k(    7) = (   0.1875000  -0.1875000   0.3125000), wk =   0.0234375
        k(    8) = (   0.0625000  -0.0625000   0.1875000), wk =   0.0234375
        k(    9) = (  -0.0625000   0.3125000   0.0625000), wk =   0.0234375
        k(   10) = (  -0.1875000   0.4375000  -0.0625000), wk =   0.0468750
        k(   11) = (  -0.3125000   0.5625000  -0.1875000), wk =   0.0468750
        k(   12) = (   0.5625000  -0.3125000   0.6875000), wk =   0.0468750
        k(   13) = (   0.4375000  -0.1875000   0.5625000), wk =   0.0468750
        k(   14) = (   0.3125000  -0.0625000   0.4375000), wk =   0.0468750
        k(   15) = (   0.1875000   0.0625000   0.3125000), wk =   0.0468750
        k(   16) = (  -0.0625000   0.5625000   0.0625000), wk =   0.0234375
        k(   17) = (  -0.1875000   0.6875000  -0.0625000), wk =   0.0468750
        k(   18) = (   0.6875000  -0.1875000   0.8125000), wk =   0.0468750
        k(   19) = (   0.5625000  -0.0625000   0.6875000), wk =   0.0468750
        k(   20) = (   0.4375000   0.0625000   0.5625000), wk =   0.0468750
        k(   21) = (   0.3125000   0.1875000   0.4375000), wk =   0.0468750
        k(   22) = (  -0.0625000   0.8125000   0.0625000), wk =   0.0234375
        k(   23) = (   0.8125000  -0.0625000   0.9375000), wk =   0.0468750
        k(   24) = (   0.6875000   0.0625000   0.8125000), wk =   0.0468750
        k(   25) = (   0.5625000   0.1875000   0.6875000), wk =   0.0468750
        k(   26) = (   0.4375000   0.3125000   0.5625000), wk =   0.0468750
        k(   27) = (  -0.0625000  -0.9375000   0.0625000), wk =   0.0234375
        k(   28) = (  -0.1875000  -0.8125000  -0.0625000), wk =   0.0468750
        k(   29) = (  -0.3125000  -0.6875000  -0.1875000), wk =   0.0468750
        k(   30) = (  -0.0625000  -0.6875000   0.0625000), wk =   0.0234375
        k(   31) = (  -0.1875000  -0.5625000  -0.0625000), wk =   0.0468750
        k(   32) = (  -0.0625000  -0.4375000   0.0625000), wk =   0.0234375
        k(   33) = (  -0.1875000   0.1875000   0.1875000), wk =   0.0078125
        k(   34) = (  -0.3125000   0.3125000   0.0625000), wk =   0.0234375
        k(   35) = (  -0.4375000   0.4375000  -0.0625000), wk =   0.0234375
        k(   36) = (   0.4375000  -0.4375000   0.8125000), wk =   0.0234375
        k(   37) = (   0.3125000  -0.3125000   0.6875000), wk =   0.0234375
        k(   38) = (   0.1875000  -0.1875000   0.5625000), wk =   0.0234375
        k(   39) = (  -0.1875000   0.4375000   0.1875000), wk =   0.0234375
        k(   40) = (  -0.3125000   0.5625000   0.0625000), wk =   0.0468750
        k(   41) = (   0.5625000  -0.3125000   0.9375000), wk =   0.0468750
        k(   42) = (   0.4375000  -0.1875000   0.8125000), wk =   0.0468750
        k(   43) = (   0.3125000  -0.0625000   0.6875000), wk =   0.0468750
        k(   44) = (  -0.1875000   0.6875000   0.1875000), wk =   0.0234375
        k(   45) = (   0.6875000  -0.1875000   1.0625000), wk =   0.0468750
        k(   46) = (   0.5625000  -0.0625000   0.9375000), wk =   0.0468750
        k(   47) = (   0.4375000   0.0625000   0.8125000), wk =   0.0468750
        k(   48) = (  -0.1875000  -1.0625000   0.1875000), wk =   0.0234375
        k(   49) = (  -0.3125000  -0.9375000   0.0625000), wk =   0.0468750
        k(   50) = (  -0.1875000  -0.8125000   0.1875000), wk =   0.0234375
        k(   51) = (  -0.3125000   0.3125000   0.3125000), wk =   0.0078125
        k(   52) = (  -0.4375000   0.4375000   0.1875000), wk =   0.0234375
        k(   53) = (   0.4375000  -0.4375000   1.0625000), wk =   0.0234375
        k(   54) = (   0.3125000  -0.3125000   0.9375000), wk =   0.0234375
        k(   55) = (  -0.3125000   0.5625000   0.3125000), wk =   0.0234375
        k(   56) = (   0.5625000  -0.3125000   1.1875000), wk =   0.0468750
        k(   57) = (   0.4375000  -0.1875000   1.0625000), wk =   0.0468750
        k(   58) = (  -0.3125000  -1.1875000   0.3125000), wk =   0.0234375
        k(   59) = (  -0.4375000   0.4375000   0.4375000), wk =   0.0078125
        k(   60) = (   0.4375000  -0.4375000   1.3125000), wk =   0.0234375

     Dense  grid:     3215 G-vectors     FFT dimensions: (  24,  24,  24)

     Smooth grid:     1139 G-vectors     FFT dimensions: (  15,  15,  15)

     Estimated max dynamical RAM per process >       3.22 MB

     Initial potential from superposition of free atoms

     starting charge       2.9979, renormalised to       3.0000
     Starting wfcs are    9 randomized atomic wfcs

     total cpu time spent up to now is        0.2 secs

     Self-consistent Calculation

     iteration #  1     ecut=    20.00 Ry     beta= 0.70
     Davidson diagonalization with overlap
     ethr =  1.00E-02,  avg # of iterations =  3.2

     Threshold (ethr) on eigenvalues was too large:
     Diagonalizing with lowered threshold

     Davidson diagonalization with overlap
     ethr =  2.00E-04,  avg # of iterations =  2.1

     total cpu time spent up to now is        0.4 secs

     total energy              =      -4.18595235 Ry
     estimated scf accuracy    <       0.00597601 Ry

     iteration #  2     ecut=    20.00 Ry     beta= 0.70
     Davidson diagonalization with overlap
     ethr =  1.99E-04,  avg # of iterations =  1.0

     negative rho (up, down):  5.312E-07 0.000E+00

     total cpu time spent up to now is        0.5 secs

     total energy              =      -4.18600661 Ry
     estimated scf accuracy    <       0.00047565 Ry

     iteration #  3     ecut=    20.00 Ry     beta= 0.70
     Davidson diagonalization with overlap
     ethr =  1.59E-05,  avg # of iterations =  1.6

     total cpu time spent up to now is        0.5 secs

     End of self-consistent calculation

          k =-0.0625 0.0625 0.0625 (   147 PWs)   bands (ev):

    -2.6580  21.2269  22.7714  22.7715  25.7554  25.7555

          k =-0.1875 0.1875-0.0625 (   146 PWs)   bands (ev):

    -2.0197  17.5946  20.1129  23.3667  26.0680  26.2398

          k =-0.3125 0.3125-0.1875 (   147 PWs)   bands (ev):

    -0.4444  12.4897  19.3134  22.8554  23.9873  25.5844

          k =-0.4375 0.4375-0.3125 (   145 PWs)   bands (ev):

     2.0180   7.9644  19.3083  21.8352  22.9732  23.5868

          k = 0.4375-0.4375 0.5625 (   141 PWs)   bands (ev):

     4.0867   5.3808  20.0676  20.5391  22.2782  23.7642

          k = 0.3125-0.3125 0.4375 (   148 PWs)   bands (ev):

     1.1028   9.3968  20.0124  21.2763  22.0822  25.3299

          k = 0.1875-0.1875 0.3125 (   147 PWs)   bands (ev):

    -1.0711  14.1510  20.2426  21.7109  24.1767  26.5994

          k = 0.0625-0.0625 0.1875 (   148 PWs)   bands (ev):

    -2.3382  19.4339  21.2074  22.2242  25.1142  26.9655

          k =-0.0625 0.3125 0.0625 (   146 PWs)   bands (ev):

    -1.7022  17.7872  19.7105  20.7698  23.7011  24.2180

          k =-0.1875 0.4375-0.0625 (   144 PWs)   bands (ev):

    -0.4441  14.5229  17.3186  20.5574  21.5794  24.8393

          k =-0.3125 0.5625-0.1875 (   143 PWs)   bands (ev):

     1.7140   9.9329  16.8522  18.2549  21.7366  26.8864

          k = 0.5625-0.3125 0.6875 (   140 PWs)   bands (ev):

     4.6656   5.9711  16.3021  17.7137  22.3810  25.3540

          k = 0.4375-0.1875 0.5625 (   141 PWs)   bands (ev):

     2.6221   8.5111  15.6202  18.9571  23.7456  24.5137

          k = 0.3125-0.0625 0.4375 (   145 PWs)   bands (ev):

     0.1779  12.8489  15.8241  21.0815  24.1542  25.8266

          k = 0.1875 0.0625 0.3125 (   145 PWs)   bands (ev):

    -1.3861  15.9312  18.6408  22.7305  23.9823  25.7652

          k =-0.0625 0.5625 0.0625 (   141 PWs)   bands (ev):

     0.4878  15.2269  16.8523  17.4347  18.4006  22.2879

          k =-0.1875 0.6875-0.0625 (   141 PWs)   bands (ev):

     2.3200  12.4984  14.0264  15.7403  19.6554  23.2879

          k = 0.6875-0.1875 0.8125 (   141 PWs)   bands (ev):

     4.9763   8.4802  12.2347  15.7787  20.4155  27.1262

          k = 0.5625-0.0625 0.6875 (   140 PWs)   bands (ev):

     4.9865   8.3372  11.3315  16.8203  21.6410  28.6777

          k = 0.4375 0.0625 0.5625 (   142 PWs)   bands (ev):

     2.3206  10.3092  13.3393  18.6932  23.5616  26.1696

          k = 0.3125 0.1875 0.4375 (   146 PWs)   bands (ev):

     0.4873  11.0761  18.0252  21.2734  22.6339  25.9269

          k =-0.0625 0.8125 0.0625 (   135 PWs)   bands (ev):

     3.8085  10.9889  13.8353  16.1791  16.9478  21.0206

          k = 0.8125-0.0625 0.9375 (   139 PWs)   bands (ev):

     6.0367   8.8129  11.7439  14.8106  18.8177  22.5497

          k = 0.6875 0.0625 0.8125 (   140 PWs)   bands (ev):

     6.8555   8.1136   9.9482  15.4876  20.1393  26.9200

          k = 0.5625 0.1875 0.6875 (   142 PWs)   bands (ev):

     5.2432   6.5390  13.6554  17.1023  21.8972  26.9205

          k = 0.4375 0.3125 0.5625 (   143 PWs)   bands (ev):

     3.2199   6.8089  18.2161  19.4870  22.9689  24.0857

          k =-0.0625-0.9375 0.0625 (   142 PWs)   bands (ev):

     5.7538   8.5452  13.5403  15.9285  16.6619  20.7509

          k =-0.1875-0.8125-0.0625 (   138 PWs)   bands (ev):

     4.1032  11.1583  12.1020  15.1019  19.0978  22.8001

          k =-0.3125-0.6875-0.1875 (   141 PWs)   bands (ev):

     3.2204   9.0680  14.8853  16.4206  20.9585  27.4411

          k =-0.0625-0.6875 0.0625 (   137 PWs)   bands (ev):

     2.0176  13.7338  14.4626  16.6805  17.5207  21.5437

          k =-0.1875-0.5625-0.0625 (   142 PWs)   bands (ev):

     0.7959  13.3836  16.1058  17.4751  20.4855  23.9850

          k =-0.0625-0.4375 0.0625 (   143 PWs)   bands (ev):

    -0.7568  16.3799  18.4452  19.3393  20.3058  23.2017

          k =-0.1875 0.1875 0.1875 (   150 PWs)   bands (ev):

    -1.7024  15.8056  21.7585  21.7585  25.4446  26.9716

          k =-0.3125 0.3125 0.0625 (   143 PWs)   bands (ev):

    -0.7571  14.2589  17.1629  23.7202  24.5483  25.8309

          k =-0.4375 0.4375-0.0625 (   144 PWs)   bands (ev):

     1.1028  11.4405  14.4741  21.0959  23.3138  26.2932

          k = 0.4375-0.4375 0.8125 (   142 PWs)   bands (ev):

     3.8137   7.3658  14.5305  19.2606  21.3669  26.6982

          k = 0.3125-0.3125 0.6875 (   144 PWs)   bands (ev):

     3.8121   7.3812  15.5722  18.2174  20.1908  27.7684

          k = 0.1875-0.1875 0.5625 (   145 PWs)   bands (ev):

     1.1029  11.6028  17.4169  17.9491  19.8024  25.8747

          k =-0.1875 0.4375 0.1875 (   143 PWs)   bands (ev):

    -0.1325  12.7437  18.9680  20.2681  21.2462  26.7079

          k =-0.3125 0.5625 0.0625 (   145 PWs)   bands (ev):

     1.4090  11.7142  14.6782  17.9710  23.2154  26.0571

          k = 0.5625-0.3125 0.9375 (   142 PWs)   bands (ev):

     3.8150   9.4583  12.4233  15.8351  24.7344  25.5283

          k = 0.4375-0.1875 0.8125 (   141 PWs)   bands (ev):

     5.8076   7.1091  12.8992  14.6458  23.3551  26.5628

          k = 0.3125-0.0625 0.6875 (   143 PWs)   bands (ev):

     2.9216  10.8556  13.5927  15.2147  22.4280  25.5775

          k =-0.1875 0.6875 0.1875 (   139 PWs)   bands (ev):

     2.6213  10.7311  14.4466  17.1910  18.8990  25.1967

          k = 0.6875-0.1875 1.0625 (   142 PWs)   bands (ev):

     4.6889  10.2488  11.7453  13.7622  21.8858  25.1579

          k = 0.5625-0.0625 0.9375 (   145 PWs)   bands (ev):

     7.4177   8.5637  10.1198  12.2124  24.6952  27.2980

          k = 0.4375 0.0625 0.8125 (   140 PWs)   bands (ev):

     5.5564   8.8864  11.5745  13.3756  24.9465  26.2512

          k =-0.1875-1.0625 0.1875 (   138 PWs)   bands (ev):

     6.3159   8.9437  10.1831  16.4359  17.9890  24.4824

          k =-0.3125-0.9375 0.0625 (   139 PWs)   bands (ev):

     6.5978   9.2355  10.1958  13.3446  21.6118  24.9350

          k =-0.1875-0.8125 0.1875 (   139 PWs)   bands (ev):

     4.3961  10.0840  11.7494  16.6871  18.2941  24.7237

          k =-0.3125 0.3125 0.3125 (   144 PWs)   bands (ev):

     0.1779  10.8208  21.3071  21.3072  24.5240  24.5241

          k =-0.4375 0.4375 0.1875 (   146 PWs)   bands (ev):

     1.4090   9.6570  16.7353  21.3500  23.4704  24.5145

          k = 0.4375-0.4375 1.0625 (   137 PWs)   bands (ev):

     3.5198   9.1816  12.2119  19.0069  21.1156  28.5676

          k = 0.3125-0.3125 0.9375 (   140 PWs)   bands (ev):

     6.3894   7.5230  10.4826  17.4576  19.3359  29.3101

          k =-0.3125 0.5625 0.3125 (   146 PWs)   bands (ev):

     2.3204   8.2458  18.5218  18.9829  20.9861  26.4106

          k = 0.5625-0.3125 1.1875 (   141 PWs)   bands (ev):

     4.1079   7.6506  14.6190  16.2160  23.8248  25.0532

          k = 0.4375-0.1875 1.0625 (   143 PWs)   bands (ev):

     6.6648   7.7990  10.6932  14.2299  23.1026  28.2108

          k =-0.3125-1.1875 0.3125 (   138 PWs)   bands (ev):

     5.5210   6.8371  12.8312  17.7108  19.6264  29.4338

          k =-0.4375 0.4375 0.4375 (   147 PWs)   bands (ev):

     2.9212   6.5208  21.5446  21.5446  22.7399  22.7400

          k = 0.4375-0.4375 1.3125 (   142 PWs)   bands (ev):

     4.3769   5.6759  17.2310  19.7710  21.8227  25.0905

     the Fermi energy is     9.4277 ev

!    total energy              =      -4.18601236 Ry
     estimated scf accuracy    <       0.00000031 Ry
     smearing contrib. (-TS)   =       0.00014210 Ry
     internal energy E=F+TS    =      -4.18615446 Ry

     The total energy is F=E-TS. E is the sum of the following terms:
     one-electron contribution =       3.20748474 Ry
     hartree contribution      =       0.01246661 Ry
     xc contribution           =      -1.69295658 Ry
     ewald contribution        =      -5.71314923 Ry

     convergence has been achieved in   3 iterations

     Writing all to output data dir ./tmp/Al.save/

     init_run     :      0.22s CPU      0.22s WALL (       1 calls)
     electrons    :      0.29s CPU      0.29s WALL (       1 calls)

     Called by init_run:
     wfcinit      :      0.05s CPU      0.05s WALL (       1 calls)
     potinit      :      0.02s CPU      0.02s WALL (       1 calls)
     hinit0       :      0.14s CPU      0.14s WALL (       1 calls)

     Called by electrons:
     c_bands      :      0.24s CPU      0.24s WALL (       4 calls)
     sum_band     :      0.04s CPU      0.04s WALL (       4 calls)
     v_of_rho     :      0.00s CPU      0.00s WALL (       4 calls)
     mix_rho      :      0.00s CPU      0.00s WALL (       4 calls)

     Called by c_bands:
     init_us_2    :      0.01s CPU      0.01s WALL (     540 calls)
     init_us_2:cp :      0.01s CPU      0.01s WALL (     540 calls)
     cegterg      :      0.23s CPU      0.23s WALL (     240 calls)

     Called by *egterg:
     cdiaghg      :      0.03s CPU      0.03s WALL (     653 calls)
     h_psi        :      0.18s CPU      0.18s WALL (     773 calls)
     g_psi        :      0.00s CPU      0.00s WALL (     473 calls)

     Called by h_psi:
     h_psi:calbec :      0.01s CPU      0.01s WALL (     773 calls)
     vloc_psi     :      0.16s CPU      0.17s WALL (     773 calls)
     add_vuspsi   :      0.01s CPU      0.01s WALL (     773 calls)

     General routines
     calbec       :      0.01s CPU      0.01s WALL (     773 calls)
     fft          :      0.14s CPU      0.14s WALL (      18 calls)
     ffts         :      0.02s CPU      0.02s WALL (       8 calls)
     fftw         :      0.12s CPU      0.12s WALL (    9338 calls)
     interpolate  :      0.02s CPU      0.02s WALL (       4 calls)

     Parallel routines

     PWSCF        :      0.52s CPU      0.53s WALL


   This run was terminated on:  16:38:47   2Jun2023            

=------------------------------------------------------------------------------=
   JOB DONE.
=------------------------------------------------------------------------------=
