### Running on host: ip-172-31-10-78

     Program PWSCF v.7.2 starts on  2Jun2023 at 16:38:50 

     This program is part of the open-source Quantum ESPRESSO suite
     for quantum simulation of materials; please cite
         "P. Giannozzi et al., J. Phys.:Condens. Matter 21 395502 (2009);
         "P. Giannozzi et al., J. Phys.:Condens. Matter 29 465901 (2017);
         "P. Giannozzi et al., J. Chem. Phys. 152 154105 (2020);
          URL http://www.quantum-espresso.org", 
     in publications or presentations arising from this work. More details at
     http://www.quantum-espresso.org/quote

     Parallel version (MPI), running on     1 processors

     MPI processes distributed on     1 nodes
     378 MiB available memory on the printing compute node when the environment starts

     Reading input from eos.Al.d/eos.Al.6.in

     Current dimensions of program PWSCF are:
     Max number of different atomic species (ntypx) = 10
     Max number of k-points (npk) =  40000
     Max angular momentum in pseudopotentials (lmaxx) =  4
     Message from routine setup:
     no reason to have ecutrho>4*ecutwfc

     Subspace diagonalization in iterative solution of the eigenvalue problem:
     a serial algorithm will be used


     G-vector sticks info
     --------------------
     sticks:   dense  smooth     PW     G-vecs:    dense   smooth      PW
     Sum         301     151     61                 3479     1243     331

     Using Slab Decomposition



     bravais-lattice index     =            2
     lattice parameter (alat)  =       7.3935  a.u.
     unit-cell volume          =     101.0411 (a.u.)^3
     number of atoms/cell      =            1
     number of atomic types    =            1
     number of electrons       =         3.00
     number of Kohn-Sham states=            6
     kinetic-energy cutoff     =      20.0000  Ry
     charge density cutoff     =     160.0000  Ry
     scf convergence threshold =      1.0E-06
     mixing beta               =       0.7000
     number of iterations used =            8  plain     mixing
     Exchange-correlation=  SLA  PZ   NOGX NOGC
                           (   1   1   0   0   0   0   0)

     celldm(1)=   7.393543  celldm(2)=   0.000000  celldm(3)=   0.000000
     celldm(4)=   0.000000  celldm(5)=   0.000000  celldm(6)=   0.000000

     crystal axes: (cart. coord. in units of alat)
               a(1) = (  -0.500000   0.000000   0.500000 )  
               a(2) = (   0.000000   0.500000   0.500000 )  
               a(3) = (  -0.500000   0.500000   0.000000 )  

     reciprocal axes: (cart. coord. in units 2 pi/alat)
               b(1) = ( -1.000000 -1.000000  1.000000 )  
               b(2) = (  1.000000  1.000000  1.000000 )  
               b(3) = ( -1.000000  1.000000 -1.000000 )  


     PseudoPot. # 1 for Al read from file:
     ./Al.pz-vbc.UPF
     MD5 check sum: c34c8b369e81ee50c191f4345b5f621b
     Pseudo is Norm-conserving, Zval =  3.0
     Generated by new atomic code, or converted to UPF format
     Using radial grid of  171 points,  2 beta functions with: 
                l(1) =   0
                l(2) =   1

     atomic species   valence    mass     pseudopotential
        Al             3.00    26.98000     Al( 1.00)

     48 Sym. Ops., with inversion, found



   Cartesian axes

     site n.     atom                  positions (alat units)
         1           Al  tau(   1) = (   0.0000000   0.0000000   0.0000000  )

     number of k points=    60  Marzari-Vanderbilt smearing, width (Ry)=  0.0200
                       cart. coord. in units 2pi/alat
        k(    1) = (  -0.0625000   0.0625000   0.0625000), wk =   0.0078125
        k(    2) = (  -0.1875000   0.1875000  -0.0625000), wk =   0.0234375
        k(    3) = (  -0.3125000   0.3125000  -0.1875000), wk =   0.0234375
        k(    4) = (  -0.4375000   0.4375000  -0.3125000), wk =   0.0234375
        k(    5) = (   0.4375000  -0.4375000   0.5625000), wk =   0.0234375
        k(    6) = (   0.3125000  -0.3125000   0.4375000), wk =   0.0234375
        k(    7) = (   0.1875000  -0.1875000   0.3125000), wk =   0.0234375
        k(    8) = (   0.0625000  -0.0625000   0.1875000), wk =   0.0234375
        k(    9) = (  -0.0625000   0.3125000   0.0625000), wk =   0.0234375
        k(   10) = (  -0.1875000   0.4375000  -0.0625000), wk =   0.0468750
        k(   11) = (  -0.3125000   0.5625000  -0.1875000), wk =   0.0468750
        k(   12) = (   0.5625000  -0.3125000   0.6875000), wk =   0.0468750
        k(   13) = (   0.4375000  -0.1875000   0.5625000), wk =   0.0468750
        k(   14) = (   0.3125000  -0.0625000   0.4375000), wk =   0.0468750
        k(   15) = (   0.1875000   0.0625000   0.3125000), wk =   0.0468750
        k(   16) = (  -0.0625000   0.5625000   0.0625000), wk =   0.0234375
        k(   17) = (  -0.1875000   0.6875000  -0.0625000), wk =   0.0468750
        k(   18) = (   0.6875000  -0.1875000   0.8125000), wk =   0.0468750
        k(   19) = (   0.5625000  -0.0625000   0.6875000), wk =   0.0468750
        k(   20) = (   0.4375000   0.0625000   0.5625000), wk =   0.0468750
        k(   21) = (   0.3125000   0.1875000   0.4375000), wk =   0.0468750
        k(   22) = (  -0.0625000   0.8125000   0.0625000), wk =   0.0234375
        k(   23) = (   0.8125000  -0.0625000   0.9375000), wk =   0.0468750
        k(   24) = (   0.6875000   0.0625000   0.8125000), wk =   0.0468750
        k(   25) = (   0.5625000   0.1875000   0.6875000), wk =   0.0468750
        k(   26) = (   0.4375000   0.3125000   0.5625000), wk =   0.0468750
        k(   27) = (  -0.0625000  -0.9375000   0.0625000), wk =   0.0234375
        k(   28) = (  -0.1875000  -0.8125000  -0.0625000), wk =   0.0468750
        k(   29) = (  -0.3125000  -0.6875000  -0.1875000), wk =   0.0468750
        k(   30) = (  -0.0625000  -0.6875000   0.0625000), wk =   0.0234375
        k(   31) = (  -0.1875000  -0.5625000  -0.0625000), wk =   0.0468750
        k(   32) = (  -0.0625000  -0.4375000   0.0625000), wk =   0.0234375
        k(   33) = (  -0.1875000   0.1875000   0.1875000), wk =   0.0078125
        k(   34) = (  -0.3125000   0.3125000   0.0625000), wk =   0.0234375
        k(   35) = (  -0.4375000   0.4375000  -0.0625000), wk =   0.0234375
        k(   36) = (   0.4375000  -0.4375000   0.8125000), wk =   0.0234375
        k(   37) = (   0.3125000  -0.3125000   0.6875000), wk =   0.0234375
        k(   38) = (   0.1875000  -0.1875000   0.5625000), wk =   0.0234375
        k(   39) = (  -0.1875000   0.4375000   0.1875000), wk =   0.0234375
        k(   40) = (  -0.3125000   0.5625000   0.0625000), wk =   0.0468750
        k(   41) = (   0.5625000  -0.3125000   0.9375000), wk =   0.0468750
        k(   42) = (   0.4375000  -0.1875000   0.8125000), wk =   0.0468750
        k(   43) = (   0.3125000  -0.0625000   0.6875000), wk =   0.0468750
        k(   44) = (  -0.1875000   0.6875000   0.1875000), wk =   0.0234375
        k(   45) = (   0.6875000  -0.1875000   1.0625000), wk =   0.0468750
        k(   46) = (   0.5625000  -0.0625000   0.9375000), wk =   0.0468750
        k(   47) = (   0.4375000   0.0625000   0.8125000), wk =   0.0468750
        k(   48) = (  -0.1875000  -1.0625000   0.1875000), wk =   0.0234375
        k(   49) = (  -0.3125000  -0.9375000   0.0625000), wk =   0.0468750
        k(   50) = (  -0.1875000  -0.8125000   0.1875000), wk =   0.0234375
        k(   51) = (  -0.3125000   0.3125000   0.3125000), wk =   0.0078125
        k(   52) = (  -0.4375000   0.4375000   0.1875000), wk =   0.0234375
        k(   53) = (   0.4375000  -0.4375000   1.0625000), wk =   0.0234375
        k(   54) = (   0.3125000  -0.3125000   0.9375000), wk =   0.0234375
        k(   55) = (  -0.3125000   0.5625000   0.3125000), wk =   0.0234375
        k(   56) = (   0.5625000  -0.3125000   1.1875000), wk =   0.0468750
        k(   57) = (   0.4375000  -0.1875000   1.0625000), wk =   0.0468750
        k(   58) = (  -0.3125000  -1.1875000   0.3125000), wk =   0.0234375
        k(   59) = (  -0.4375000   0.4375000   0.4375000), wk =   0.0078125
        k(   60) = (   0.4375000  -0.4375000   1.3125000), wk =   0.0234375

     Dense  grid:     3479 G-vectors     FFT dimensions: (  24,  24,  24)

     Smooth grid:     1243 G-vectors     FFT dimensions: (  15,  15,  15)

     Estimated max dynamical RAM per process >       3.39 MB

     Initial potential from superposition of free atoms

     starting charge       2.9979, renormalised to       3.0000
     Starting wfcs are    9 randomized atomic wfcs

     total cpu time spent up to now is        0.2 secs

     Self-consistent Calculation

     iteration #  1     ecut=    20.00 Ry     beta= 0.70
     Davidson diagonalization with overlap
     ethr =  1.00E-02,  avg # of iterations =  3.0

     Threshold (ethr) on eigenvalues was too large:
     Diagonalizing with lowered threshold

     Davidson diagonalization with overlap
     ethr =  1.96E-04,  avg # of iterations =  2.1

     total cpu time spent up to now is        0.4 secs

     total energy              =      -4.18908827 Ry
     estimated scf accuracy    <       0.00587920 Ry

     iteration #  2     ecut=    20.00 Ry     beta= 0.70
     Davidson diagonalization with overlap
     ethr =  1.96E-04,  avg # of iterations =  1.0

     negative rho (up, down):  3.449E-06 0.000E+00

     total cpu time spent up to now is        0.5 secs

     total energy              =      -4.18913347 Ry
     estimated scf accuracy    <       0.00045768 Ry

     iteration #  3     ecut=    20.00 Ry     beta= 0.70
     Davidson diagonalization with overlap
     ethr =  1.53E-05,  avg # of iterations =  1.6

     total cpu time spent up to now is        0.5 secs

     End of self-consistent calculation

          k =-0.0625 0.0625 0.0625 (   165 PWs)   bands (ev):

    -2.9273  20.0166  21.5084  21.5084  24.0873  24.0874

          k =-0.1875 0.1875-0.0625 (   156 PWs)   bands (ev):

    -2.3181  16.5246  18.8673  22.0686  24.3390  24.6856

          k =-0.3125 0.3125-0.1875 (   151 PWs)   bands (ev):

    -0.8126  11.6037  18.1013  21.5098  22.5654  24.1287

          k =-0.4375 0.4375-0.3125 (   151 PWs)   bands (ev):

     1.5472   7.2454  18.1100  20.5440  21.5623  22.1683

          k = 0.4375-0.4375 0.5625 (   156 PWs)   bands (ev):

     3.5498   4.7406  18.8743  19.2762  20.8735  22.3372

          k = 0.3125-0.3125 0.4375 (   151 PWs)   bands (ev):

     0.6692   8.6251  18.7615  20.1643  20.5655  23.8487

          k = 0.1875-0.1875 0.3125 (   153 PWs)   bands (ev):

    -1.4119  13.2023  18.9854  20.4447  22.7204  25.0452

          k = 0.0625-0.0625 0.1875 (   158 PWs)   bands (ev):

    -2.6222  18.2927  19.9331  20.9933  23.4383  25.3867

          k =-0.0625 0.3125 0.0625 (   157 PWs)   bands (ev):

    -2.0150  16.7193  18.4706  19.5956  22.3740  22.5717

          k =-0.1875 0.4375-0.0625 (   152 PWs)   bands (ev):

    -0.8124  13.5833  16.1789  19.3260  20.3018  23.2402

          k =-0.3125 0.5625-0.1875 (   151 PWs)   bands (ev):

     1.2552   9.1468  15.7894  17.0386  20.3982  25.3285

          k = 0.5625-0.3125 0.6875 (   155 PWs)   bands (ev):

     4.1104   5.3078  15.2853  16.4828  21.0060  23.8794

          k = 0.4375-0.1875 0.5625 (   154 PWs)   bands (ev):

     2.1271   7.7757  14.5764  17.7240  22.3007  23.1019

          k = 0.3125-0.0625 0.4375 (   151 PWs)   bands (ev):

    -0.2169  11.9733  14.7359  19.7798  22.7862  24.3052

          k = 0.1875 0.0625 0.3125 (   156 PWs)   bands (ev):

    -1.7129  14.9310  17.4430  21.4555  22.5359  24.1888

          k =-0.0625 0.5625 0.0625 (   151 PWs)   bands (ev):

     0.0796  14.2832  15.8358  16.2600  17.2598  20.7006

          k =-0.1875 0.6875-0.0625 (   151 PWs)   bands (ev):

     1.8363  11.6559  13.1189  14.5484  18.4715  21.7294

          k = 0.6875-0.1875 0.8125 (   152 PWs)   bands (ev):

     4.3951   7.7565  11.3369  14.6392  19.1412  25.5008

          k = 0.5625-0.0625 0.6875 (   152 PWs)   bands (ev):

     4.4062   7.6272  10.4308  15.6583  20.3007  27.0941

          k = 0.4375 0.0625 0.5625 (   152 PWs)   bands (ev):

     1.8373   9.5303  12.3550  17.4699  22.1382  24.7162

          k = 0.3125 0.1875 0.4375 (   150 PWs)   bands (ev):

     0.0793  10.2450  16.8714  20.0041  21.2424  24.4272

          k =-0.0625 0.8125 0.0625 (   154 PWs)   bands (ev):

     3.2661  10.1709  12.9456  15.0386  15.8725  19.4871

          k = 0.8125-0.0625 0.9375 (   152 PWs)   bands (ev):

     5.4193   8.0731  10.9020  13.6909  17.6663  21.0172

          k = 0.6875 0.0625 0.8125 (   153 PWs)   bands (ev):

     6.2222   7.4322   9.0776  14.3663  18.8775  25.3017

          k = 0.5625 0.1875 0.6875 (   154 PWs)   bands (ev):

     4.6694   5.8564  12.6999  15.9237  20.5450  25.3865

          k = 0.4375 0.3125 0.5625 (   154 PWs)   bands (ev):

     2.7032   6.1310  17.0944  18.2300  21.5610  22.6637

          k =-0.0625-0.9375 0.0625 (   150 PWs)   bands (ev):

     5.1463   7.8050  12.6670  14.7961  15.5972  19.2302

          k =-0.1875-0.8125-0.0625 (   152 PWs)   bands (ev):

     3.5502  10.3711  11.2252  13.9640  17.9355  21.2585

          k =-0.3125-0.6875-0.1875 (   151 PWs)   bands (ev):

     2.7021   8.3168  13.9380  15.2220  19.6587  25.8047

          k =-0.0625-0.6875 0.0625 (   151 PWs)   bands (ev):

     1.5461  12.8395  13.5286  15.5258  16.4243  19.9869

          k =-0.1875-0.5625-0.0625 (   149 PWs)   bands (ev):

     0.3750  12.4942  15.0721  16.2842  19.2672  22.4045

          k =-0.0625-0.4375 0.0625 (   154 PWs)   bands (ev):

    -1.1114  15.3774  17.2415  18.2482  19.0874  21.5779

          k =-0.1875 0.1875 0.1875 (   153 PWs)   bands (ev):

    -2.0151  14.7921  20.4609  20.4609  23.9626  25.3534

          k =-0.3125 0.3125 0.0625 (   152 PWs)   bands (ev):

    -1.1117  13.3262  16.0184  22.2681  23.2196  24.3463

          k =-0.4375 0.4375-0.0625 (   149 PWs)   bands (ev):

     0.6693  10.6189  13.4375  19.7865  21.9084  24.8495

          k = 0.4375-0.4375 0.8125 (   156 PWs)   bands (ev):

     3.2751   6.6699  13.5263  18.0235  20.0261  25.1811

          k = 0.3125-0.3125 0.6875 (   155 PWs)   bands (ev):

     3.2733   6.6842  14.5524  17.0180  18.8892  26.1967

          k = 0.1875-0.1875 0.5625 (   150 PWs)   bands (ev):

     0.6693  10.7595  16.3708  16.7592  18.5092  24.2834

          k =-0.1875 0.4375 0.1875 (   151 PWs)   bands (ev):

    -0.5143  11.8522  17.7475  19.2061  19.7915  25.0899

          k =-0.3125 0.5625 0.0625 (   150 PWs)   bands (ev):

     0.9628  10.8846  13.6561  16.7728  21.8832  24.4360

          k = 0.5625-0.3125 0.9375 (   153 PWs)   bands (ev):

     3.2744   8.7114  11.5008  14.6920  23.2500  24.1078

          k = 0.4375-0.1875 0.8125 (   153 PWs)   bands (ev):

     5.2138   6.4107  12.0368  13.4861  21.9562  25.0382

          k = 0.3125-0.0625 0.6875 (   150 PWs)   bands (ev):

     2.4146  10.0622  12.6986  14.0296  21.1278  23.9646

          k =-0.1875 0.6875 0.1875 (   151 PWs)   bands (ev):

     2.1260   9.9280  13.4770  16.0215  17.6754  23.6258

          k = 0.6875-0.1875 1.0625 (   154 PWs)   bands (ev):

     4.1155   9.4912  10.9326  12.6013  20.6075  23.5581

          k = 0.5625-0.0625 0.9375 (   152 PWs)   bands (ev):

     6.7659   7.8657   9.3794  11.0683  23.2885  25.6431

          k = 0.4375 0.0625 0.8125 (   155 PWs)   bands (ev):

     4.9548   8.1627  10.7732  12.2261  23.5199  24.7200

          k =-0.1875-1.0625 0.1875 (   152 PWs)   bands (ev):

     5.6911   8.2513   9.2998  15.2884  16.8212  22.9338

          k =-0.3125-0.9375 0.0625 (   155 PWs)   bands (ev):

     5.9633   8.5321   9.3720  12.2381  20.3444  23.3418

          k =-0.1875-0.8125 0.1875 (   150 PWs)   bands (ev):

     3.8335   9.3316  10.8415  15.5324  17.1084  23.1685

          k =-0.3125 0.3125 0.3125 (   153 PWs)   bands (ev):

    -0.2173   9.9945  20.0149  20.0149  23.0718  23.0721

          k =-0.4375 0.4375 0.1875 (   152 PWs)   bands (ev):

     0.9627   8.8789  15.6351  20.0387  22.0592  23.0934

          k = 0.4375-0.4375 1.0625 (   155 PWs)   bands (ev):

     2.9900   8.4426  11.2694  17.7747  19.7880  26.9965

          k = 0.3125-0.3125 0.9375 (   152 PWs)   bands (ev):

     5.7777   6.8294   9.6061  16.2777  18.0876  27.6123

          k =-0.3125 0.5625 0.3125 (   151 PWs)   bands (ev):

     1.8375   7.5180  17.4153  17.7633  19.6234  24.8903

          k = 0.5625-0.3125 1.1875 (   152 PWs)   bands (ev):

     3.5582   6.9457  13.6766  15.0215  22.3961  23.5985

          k = 0.4375-0.1875 1.0625 (   151 PWs)   bands (ev):

     6.0431   7.0987   9.8411  13.1295  21.7165  26.6285

          k =-0.3125-1.1875 0.3125 (   154 PWs)   bands (ev):

     4.9360   6.1462  11.8991  16.5236  18.3605  27.7269

          k =-0.4375 0.4375 0.4375 (   147 PWs)   bands (ev):

     2.4167   5.8543  20.2858  20.2858  21.3147  21.3149

          k = 0.4375-0.4375 1.3125 (   158 PWs)   bands (ev):

     3.8311   5.0238  16.1326  18.5232  20.4560  23.6255

     the Fermi energy is     8.6862 ev

!    total energy              =      -4.18913938 Ry
     estimated scf accuracy    <       0.00000034 Ry
     smearing contrib. (-TS)   =       0.00010408 Ry
     internal energy E=F+TS    =      -4.18924346 Ry

     The total energy is F=E-TS. E is the sum of the following terms:
     one-electron contribution =       3.03760843 Ry
     hartree contribution      =       0.01059994 Ry
     xc contribution           =      -1.65639854 Ry
     ewald contribution        =      -5.58105329 Ry

     convergence has been achieved in   3 iterations

     Writing all to output data dir ./tmp/Al.save/

     init_run     :      0.22s CPU      0.22s WALL (       1 calls)
     electrons    :      0.29s CPU      0.30s WALL (       1 calls)

     Called by init_run:
     wfcinit      :      0.05s CPU      0.05s WALL (       1 calls)
     potinit      :      0.02s CPU      0.02s WALL (       1 calls)
     hinit0       :      0.14s CPU      0.14s WALL (       1 calls)

     Called by electrons:
     c_bands      :      0.24s CPU      0.25s WALL (       4 calls)
     sum_band     :      0.04s CPU      0.05s WALL (       4 calls)
     v_of_rho     :      0.00s CPU      0.00s WALL (       4 calls)
     mix_rho      :      0.00s CPU      0.00s WALL (       4 calls)

     Called by c_bands:
     init_us_2    :      0.01s CPU      0.01s WALL (     540 calls)
     init_us_2:cp :      0.01s CPU      0.01s WALL (     540 calls)
     cegterg      :      0.23s CPU      0.24s WALL (     240 calls)

     Called by *egterg:
     cdiaghg      :      0.03s CPU      0.03s WALL (     648 calls)
     h_psi        :      0.18s CPU      0.19s WALL (     768 calls)
     g_psi        :      0.00s CPU      0.00s WALL (     468 calls)

     Called by h_psi:
     h_psi:calbec :      0.01s CPU      0.01s WALL (     768 calls)
     vloc_psi     :      0.17s CPU      0.17s WALL (     768 calls)
     add_vuspsi   :      0.01s CPU      0.01s WALL (     768 calls)

     General routines
     calbec       :      0.01s CPU      0.01s WALL (     768 calls)
     fft          :      0.14s CPU      0.14s WALL (      18 calls)
     ffts         :      0.02s CPU      0.02s WALL (       8 calls)
     fftw         :      0.12s CPU      0.13s WALL (    9290 calls)
     interpolate  :      0.02s CPU      0.02s WALL (       4 calls)

     Parallel routines

     PWSCF        :      0.51s CPU      0.55s WALL


   This run was terminated on:  16:38:51   2Jun2023            

=------------------------------------------------------------------------------=
   JOB DONE.
=------------------------------------------------------------------------------=
