### Running on host: ip-172-31-10-78

     Program PWSCF v.7.2 starts on  2Jun2023 at 16:38:56 

     This program is part of the open-source Quantum ESPRESSO suite
     for quantum simulation of materials; please cite
         "P. Giannozzi et al., J. Phys.:Condens. Matter 21 395502 (2009);
         "P. Giannozzi et al., J. Phys.:Condens. Matter 29 465901 (2017);
         "P. Giannozzi et al., J. Chem. Phys. 152 154105 (2020);
          URL http://www.quantum-espresso.org", 
     in publications or presentations arising from this work. More details at
     http://www.quantum-espresso.org/quote

     Parallel version (MPI), running on     1 processors

     MPI processes distributed on     1 nodes
     377 MiB available memory on the printing compute node when the environment starts

     Reading input from eos.Al.d/eos.Al.12.in

     Current dimensions of program PWSCF are:
     Max number of different atomic species (ntypx) = 10
     Max number of k-points (npk) =  40000
     Max angular momentum in pseudopotentials (lmaxx) =  4
     Message from routine setup:
     no reason to have ecutrho>4*ecutwfc

     Subspace diagonalization in iterative solution of the eigenvalue problem:
     a serial algorithm will be used


     G-vector sticks info
     --------------------
     sticks:   dense  smooth     PW     G-vecs:    dense   smooth      PW
     Sum         313     163     61                 3839     1363     331

     Using Slab Decomposition



     bravais-lattice index     =            2
     lattice parameter (alat)  =       7.6500  a.u.
     unit-cell volume          =     111.9228 (a.u.)^3
     number of atoms/cell      =            1
     number of atomic types    =            1
     number of electrons       =         3.00
     number of Kohn-Sham states=            6
     kinetic-energy cutoff     =      20.0000  Ry
     charge density cutoff     =     160.0000  Ry
     scf convergence threshold =      1.0E-06
     mixing beta               =       0.7000
     number of iterations used =            8  plain     mixing
     Exchange-correlation=  SLA  PZ   NOGX NOGC
                           (   1   1   0   0   0   0   0)

     celldm(1)=   7.649967  celldm(2)=   0.000000  celldm(3)=   0.000000
     celldm(4)=   0.000000  celldm(5)=   0.000000  celldm(6)=   0.000000

     crystal axes: (cart. coord. in units of alat)
               a(1) = (  -0.500000   0.000000   0.500000 )  
               a(2) = (   0.000000   0.500000   0.500000 )  
               a(3) = (  -0.500000   0.500000   0.000000 )  

     reciprocal axes: (cart. coord. in units 2 pi/alat)
               b(1) = ( -1.000000 -1.000000  1.000000 )  
               b(2) = (  1.000000  1.000000  1.000000 )  
               b(3) = ( -1.000000  1.000000 -1.000000 )  


     PseudoPot. # 1 for Al read from file:
     ./Al.pz-vbc.UPF
     MD5 check sum: c34c8b369e81ee50c191f4345b5f621b
     Pseudo is Norm-conserving, Zval =  3.0
     Generated by new atomic code, or converted to UPF format
     Using radial grid of  171 points,  2 beta functions with: 
                l(1) =   0
                l(2) =   1

     atomic species   valence    mass     pseudopotential
        Al             3.00    26.98000     Al( 1.00)

     48 Sym. Ops., with inversion, found



   Cartesian axes

     site n.     atom                  positions (alat units)
         1           Al  tau(   1) = (   0.0000000   0.0000000   0.0000000  )

     number of k points=    60  Marzari-Vanderbilt smearing, width (Ry)=  0.0200
                       cart. coord. in units 2pi/alat
        k(    1) = (  -0.0625000   0.0625000   0.0625000), wk =   0.0078125
        k(    2) = (  -0.1875000   0.1875000  -0.0625000), wk =   0.0234375
        k(    3) = (  -0.3125000   0.3125000  -0.1875000), wk =   0.0234375
        k(    4) = (  -0.4375000   0.4375000  -0.3125000), wk =   0.0234375
        k(    5) = (   0.4375000  -0.4375000   0.5625000), wk =   0.0234375
        k(    6) = (   0.3125000  -0.3125000   0.4375000), wk =   0.0234375
        k(    7) = (   0.1875000  -0.1875000   0.3125000), wk =   0.0234375
        k(    8) = (   0.0625000  -0.0625000   0.1875000), wk =   0.0234375
        k(    9) = (  -0.0625000   0.3125000   0.0625000), wk =   0.0234375
        k(   10) = (  -0.1875000   0.4375000  -0.0625000), wk =   0.0468750
        k(   11) = (  -0.3125000   0.5625000  -0.1875000), wk =   0.0468750
        k(   12) = (   0.5625000  -0.3125000   0.6875000), wk =   0.0468750
        k(   13) = (   0.4375000  -0.1875000   0.5625000), wk =   0.0468750
        k(   14) = (   0.3125000  -0.0625000   0.4375000), wk =   0.0468750
        k(   15) = (   0.1875000   0.0625000   0.3125000), wk =   0.0468750
        k(   16) = (  -0.0625000   0.5625000   0.0625000), wk =   0.0234375
        k(   17) = (  -0.1875000   0.6875000  -0.0625000), wk =   0.0468750
        k(   18) = (   0.6875000  -0.1875000   0.8125000), wk =   0.0468750
        k(   19) = (   0.5625000  -0.0625000   0.6875000), wk =   0.0468750
        k(   20) = (   0.4375000   0.0625000   0.5625000), wk =   0.0468750
        k(   21) = (   0.3125000   0.1875000   0.4375000), wk =   0.0468750
        k(   22) = (  -0.0625000   0.8125000   0.0625000), wk =   0.0234375
        k(   23) = (   0.8125000  -0.0625000   0.9375000), wk =   0.0468750
        k(   24) = (   0.6875000   0.0625000   0.8125000), wk =   0.0468750
        k(   25) = (   0.5625000   0.1875000   0.6875000), wk =   0.0468750
        k(   26) = (   0.4375000   0.3125000   0.5625000), wk =   0.0468750
        k(   27) = (  -0.0625000  -0.9375000   0.0625000), wk =   0.0234375
        k(   28) = (  -0.1875000  -0.8125000  -0.0625000), wk =   0.0468750
        k(   29) = (  -0.3125000  -0.6875000  -0.1875000), wk =   0.0468750
        k(   30) = (  -0.0625000  -0.6875000   0.0625000), wk =   0.0234375
        k(   31) = (  -0.1875000  -0.5625000  -0.0625000), wk =   0.0468750
        k(   32) = (  -0.0625000  -0.4375000   0.0625000), wk =   0.0234375
        k(   33) = (  -0.1875000   0.1875000   0.1875000), wk =   0.0078125
        k(   34) = (  -0.3125000   0.3125000   0.0625000), wk =   0.0234375
        k(   35) = (  -0.4375000   0.4375000  -0.0625000), wk =   0.0234375
        k(   36) = (   0.4375000  -0.4375000   0.8125000), wk =   0.0234375
        k(   37) = (   0.3125000  -0.3125000   0.6875000), wk =   0.0234375
        k(   38) = (   0.1875000  -0.1875000   0.5625000), wk =   0.0234375
        k(   39) = (  -0.1875000   0.4375000   0.1875000), wk =   0.0234375
        k(   40) = (  -0.3125000   0.5625000   0.0625000), wk =   0.0468750
        k(   41) = (   0.5625000  -0.3125000   0.9375000), wk =   0.0468750
        k(   42) = (   0.4375000  -0.1875000   0.8125000), wk =   0.0468750
        k(   43) = (   0.3125000  -0.0625000   0.6875000), wk =   0.0468750
        k(   44) = (  -0.1875000   0.6875000   0.1875000), wk =   0.0234375
        k(   45) = (   0.6875000  -0.1875000   1.0625000), wk =   0.0468750
        k(   46) = (   0.5625000  -0.0625000   0.9375000), wk =   0.0468750
        k(   47) = (   0.4375000   0.0625000   0.8125000), wk =   0.0468750
        k(   48) = (  -0.1875000  -1.0625000   0.1875000), wk =   0.0234375
        k(   49) = (  -0.3125000  -0.9375000   0.0625000), wk =   0.0468750
        k(   50) = (  -0.1875000  -0.8125000   0.1875000), wk =   0.0234375
        k(   51) = (  -0.3125000   0.3125000   0.3125000), wk =   0.0078125
        k(   52) = (  -0.4375000   0.4375000   0.1875000), wk =   0.0234375
        k(   53) = (   0.4375000  -0.4375000   1.0625000), wk =   0.0234375
        k(   54) = (   0.3125000  -0.3125000   0.9375000), wk =   0.0234375
        k(   55) = (  -0.3125000   0.5625000   0.3125000), wk =   0.0234375
        k(   56) = (   0.5625000  -0.3125000   1.1875000), wk =   0.0468750
        k(   57) = (   0.4375000  -0.1875000   1.0625000), wk =   0.0468750
        k(   58) = (  -0.3125000  -1.1875000   0.3125000), wk =   0.0234375
        k(   59) = (  -0.4375000   0.4375000   0.4375000), wk =   0.0078125
        k(   60) = (   0.4375000  -0.4375000   1.3125000), wk =   0.0234375

     Dense  grid:     3839 G-vectors     FFT dimensions: (  24,  24,  24)

     Smooth grid:     1363 G-vectors     FFT dimensions: (  15,  15,  15)

     Estimated max dynamical RAM per process >       3.64 MB

     Initial potential from superposition of free atoms

     starting charge       2.9979, renormalised to       3.0000

     negative rho (up, down):  4.795E-05 0.000E+00
     Starting wfcs are    9 randomized atomic wfcs

     total cpu time spent up to now is        0.2 secs

     Self-consistent Calculation

     iteration #  1     ecut=    20.00 Ry     beta= 0.70
     Davidson diagonalization with overlap
     ethr =  1.00E-02,  avg # of iterations =  2.8

     Threshold (ethr) on eigenvalues was too large:
     Diagonalizing with lowered threshold

     Davidson diagonalization with overlap
     ethr =  1.93E-04,  avg # of iterations =  2.1

     negative rho (up, down):  1.365E-05 0.000E+00

     total cpu time spent up to now is        0.4 secs

     total energy              =      -4.18808029 Ry
     estimated scf accuracy    <       0.00575361 Ry

     iteration #  2     ecut=    20.00 Ry     beta= 0.70
     Davidson diagonalization with overlap
     ethr =  1.92E-04,  avg # of iterations =  1.0

     negative rho (up, down):  6.530E-06 0.000E+00

     total cpu time spent up to now is        0.5 secs

     total energy              =      -4.18811848 Ry
     estimated scf accuracy    <       0.00042995 Ry

     iteration #  3     ecut=    20.00 Ry     beta= 0.70
     Davidson diagonalization with overlap
     ethr =  1.43E-05,  avg # of iterations =  1.8

     total cpu time spent up to now is        0.5 secs

     End of self-consistent calculation

          k =-0.0625 0.0625 0.0625 (   169 PWs)   bands (ev):

    -3.2837  18.3248  19.7383  19.7384  21.8325  21.8326

          k =-0.1875 0.1875-0.0625 (   169 PWs)   bands (ev):

    -2.7149  15.0377  17.1387  20.2334  22.0234  22.5387

          k =-0.3125 0.3125-0.1875 (   163 PWs)   bands (ev):

    -1.3066  10.3794  16.4196  19.5577  20.6972  22.1282

          k =-0.4375 0.4375-0.3125 (   167 PWs)   bands (ev):

     0.9072   6.2624  16.4318  18.6550  19.7405  20.2502

          k = 0.4375-0.4375 0.5625 (   167 PWs)   bands (ev):

     2.8076   3.8844  17.1674  17.5025  19.0147  20.4200

          k = 0.3125-0.3125 0.4375 (   165 PWs)   bands (ev):

     0.0823   7.5654  17.0222  18.4365  18.6775  21.8355

          k = 0.1875-0.1875 0.3125 (   166 PWs)   bands (ev):

    -1.8676  11.8892  17.2414  18.6536  20.7418  22.8899

          k = 0.0625-0.0625 0.1875 (   169 PWs)   bands (ev):

    -2.9988  16.7004  18.1610  19.2847  21.1280  23.2122

          k =-0.0625 0.3125 0.0625 (   166 PWs)   bands (ev):

    -2.4315  15.2293  16.7581  17.9778  20.0713  20.8129

          k =-0.1875 0.4375-0.0625 (   165 PWs)   bands (ev):

    -1.3063  12.2797  14.5975  17.5804  18.5709  21.0994

          k =-0.3125 0.5625-0.1875 (   168 PWs)   bands (ev):

     0.6331   8.0649  14.2899  15.3785  18.5819  23.1893

          k = 0.5625-0.3125 0.6875 (   167 PWs)   bands (ev):

     3.3409   4.4166  13.8469  14.8184  19.1328  21.8661

          k = 0.4375-0.1875 0.5625 (   168 PWs)   bands (ev):

     1.4537   6.7686  13.1228  16.0330  20.3213  21.1808

          k = 0.3125-0.0625 0.4375 (   167 PWs)   bands (ev):

    -0.7486  10.7620  13.2283  17.9698  20.9003  22.2187

          k = 0.1875 0.0625 0.3125 (   164 PWs)   bands (ev):

    -2.1492  13.5438  15.7861  19.6491  20.5134  22.1189

          k =-0.0625 0.5625 0.0625 (   170 PWs)   bands (ev):

    -0.4704  12.9628  14.3802  14.6473  15.7268  18.5843

          k =-0.1875 0.6875-0.0625 (   171 PWs)   bands (ev):

     1.1800  10.4853  11.8339  12.9419  16.8518  19.6314

          k = 0.6875-0.1875 0.8125 (   170 PWs)   bands (ev):

     3.5983   6.7609  10.0852  13.0985  17.4039  23.2819

          k = 0.5625-0.0625 0.6875 (   171 PWs)   bands (ev):

     3.6084   6.6562   9.1847  14.0767  18.4741  24.9071

          k = 0.4375 0.0625 0.5625 (   168 PWs)   bands (ev):

     1.1810   8.4581  10.9917  15.7936  20.1902  22.7150

          k = 0.3125 0.1875 0.4375 (   166 PWs)   bands (ev):

    -0.4709   9.0988  15.2661  18.1934  19.3941  22.3708

          k =-0.0625 0.8125 0.0625 (   168 PWs)   bands (ev):

     2.5285   9.0247  11.6995  13.4810  14.4276  17.4351

          k = 0.8125-0.0625 0.9375 (   172 PWs)   bands (ev):

     4.5777   7.0307   9.7397  12.1798  16.0924  18.9543

          k = 0.6875 0.0625 0.8125 (   174 PWs)   bands (ev):

     5.3518   6.4859   7.8809  12.8484  17.1569  23.0967

          k = 0.5625 0.1875 0.6875 (   170 PWs)   bands (ev):

     3.8726   4.9355  11.3669  14.3227  18.7028  23.2852

          k = 0.4375 0.3125 0.5625 (   167 PWs)   bands (ev):

     1.9974   5.2092  15.5098  16.5049  19.6487  20.7367

          k =-0.0625-0.9375 0.0625 (   176 PWs)   bands (ev):

     4.3175   6.7661  11.4419  13.2471  14.1660  17.1941

          k =-0.1875-0.8125-0.0625 (   171 PWs)   bands (ev):

     2.7968   9.2594  10.0143  12.4299  16.3465  19.1830

          k =-0.3125-0.6875-0.1875 (   170 PWs)   bands (ev):

     1.9957   7.2846  12.5967  13.6070  17.8882  23.5693

          k =-0.0625-0.6875 0.0625 (   171 PWs)   bands (ev):

     0.9068  11.5749  12.2213  13.9463  14.9488  17.9055

          k =-0.1875-0.5625-0.0625 (   167 PWs)   bands (ev):

    -0.1933  11.2600  13.6094  14.6631  17.6004  20.2801

          k =-0.0625-0.4375 0.0625 (   166 PWs)   bands (ev):

    -1.5863  13.9777  15.5851  16.7384  17.3593  19.4416

          k =-0.1875 0.1875 0.1875 (   168 PWs)   bands (ev):

    -2.4317  13.3871  18.6477  18.6477  21.9068  23.1312

          k =-0.3125 0.3125 0.0625 (   164 PWs)   bands (ev):

    -1.5866  12.0346  14.4348  20.1943  21.4246  22.3062

          k =-0.4375 0.4375-0.0625 (   167 PWs)   bands (ev):

     0.0827   9.4851  12.0034  17.9641  19.9956  22.8588

          k = 0.4375-0.4375 0.8125 (   168 PWs)   bands (ev):

     2.5379   5.7215  12.1316  16.3142  18.2161  23.1081

          k = 0.3125-0.3125 0.6875 (   168 PWs)   bands (ev):

     2.5363   5.7333  13.1225  15.3655  17.1424  24.0470

          k = 0.1875-0.1875 0.5625 (   169 PWs)   bands (ev):

     0.0827   9.5930  14.8732  15.1230  16.7848  22.1241

          k =-0.1875 0.4375 0.1875 (   165 PWs)   bands (ev):

    -1.0272  10.6190  16.0642  17.7198  17.8026  22.8927

          k =-0.3125 0.5625 0.0625 (   169 PWs)   bands (ev):

     0.3584   9.7383  12.2300  15.1357  20.0474  22.2327

          k = 0.5625-0.3125 0.9375 (   169 PWs)   bands (ev):

     2.5363   7.6859  10.2120  13.1501  21.2114  22.1559

          k = 0.4375-0.1875 0.8125 (   169 PWs)   bands (ev):

     4.3903   5.4629  10.8172  11.9395  20.0390  22.9502

          k = 0.3125-0.0625 0.6875 (   172 PWs)   bands (ev):

     1.7244   8.9667  11.4268  12.4466  19.3382  21.7757

          k =-0.1875 0.6875 0.1875 (   171 PWs)   bands (ev):

     1.4525   8.8167  12.1155  14.4188  16.0285  21.4959

          k = 0.6875-0.1875 1.0625 (   171 PWs)   bands (ev):

     3.3319   8.4438   9.7838  11.0551  18.8498  21.3910

          k = 0.5625-0.0625 0.9375 (   170 PWs)   bands (ev):

     5.8685   6.9039   8.3275   9.5579  21.3467  23.3818

          k = 0.4375 0.0625 0.8125 (   170 PWs)   bands (ev):

     4.1291   7.1692   9.6352  10.7049  21.5472  22.6253

          k =-0.1875-1.0625 0.1875 (   174 PWs)   bands (ev):

     4.8369   7.2654   8.1040  13.7160  15.2427  20.8387

          k =-0.3125-0.9375 0.0625 (   170 PWs)   bands (ev):

     5.0965   7.5311   8.2405  10.7675  18.6029  21.1859

          k =-0.1875-0.8125 0.1875 (   172 PWs)   bands (ev):

     3.0646   8.2841   9.5853  13.9497  15.5074  21.0610

          k =-0.3125 0.3125 0.3125 (   162 PWs)   bands (ev):

    -0.7487   8.8576  18.2022  18.2022  21.1119  21.1121

          k =-0.4375 0.4375 0.1875 (   166 PWs)   bands (ev):

     0.3583   7.8096  14.1064  18.2005  20.1410  21.1708

          k = 0.4375-0.4375 1.0625 (   171 PWs)   bands (ev):

     2.2677   7.4291   9.9680  16.0765  17.9937  24.8284

          k = 0.3125-0.3125 0.9375 (   172 PWs)   bands (ev):

     4.9261   5.8863   8.3995  14.6583  16.4026  25.2869

          k =-0.3125 0.5625 0.3125 (   169 PWs)   bands (ev):

     1.1807   6.5210  15.8339  16.0742  17.8161  22.8152

          k = 0.5625-0.3125 1.1875 (   169 PWs)   bands (ev):

     2.8054   5.9834  12.3433  13.4171  20.4339  21.6148

          k = 0.4375-0.1875 1.0625 (   172 PWs)   bands (ev):

     5.1782   6.1442   8.6509  11.6578  19.8164  24.4431

          k =-0.3125-1.1875 0.3125 (   174 PWs)   bands (ev):

     4.1263   5.2102  10.6043  14.8932  16.6546  25.3825

          k =-0.4375 0.4375 0.4375 (   168 PWs)   bands (ev):

     1.7259   4.9471  18.4349  18.4349  19.4771  19.4771

          k = 0.4375-0.4375 1.3125 (   168 PWs)   bands (ev):

     3.0754   4.1499  14.5949  16.7892  18.6186  21.6364

     the Fermi energy is     7.6522 ev

!    total energy              =      -4.18812539 Ry
     estimated scf accuracy    <       0.00000039 Ry
     smearing contrib. (-TS)   =       0.00003575 Ry
     internal energy E=F+TS    =      -4.18816114 Ry

     The total energy is F=E-TS. E is the sum of the following terms:
     one-electron contribution =       2.80220968 Ry
     hartree contribution      =       0.00881419 Ry
     xc contribution           =      -1.60520614 Ry
     ewald contribution        =      -5.39397888 Ry

     convergence has been achieved in   3 iterations

     Writing all to output data dir ./tmp/Al.save/

     init_run     :      0.22s CPU      0.22s WALL (       1 calls)
     electrons    :      0.27s CPU      0.29s WALL (       1 calls)

     Called by init_run:
     wfcinit      :      0.05s CPU      0.05s WALL (       1 calls)
     potinit      :      0.02s CPU      0.02s WALL (       1 calls)
     hinit0       :      0.14s CPU      0.14s WALL (       1 calls)

     Called by electrons:
     c_bands      :      0.22s CPU      0.24s WALL (       4 calls)
     sum_band     :      0.04s CPU      0.04s WALL (       4 calls)
     v_of_rho     :      0.00s CPU      0.00s WALL (       4 calls)
     mix_rho      :      0.00s CPU      0.00s WALL (       4 calls)

     Called by c_bands:
     init_us_2    :      0.01s CPU      0.01s WALL (     540 calls)
     init_us_2:cp :      0.01s CPU      0.01s WALL (     540 calls)
     cegterg      :      0.22s CPU      0.23s WALL (     240 calls)

     Called by *egterg:
     cdiaghg      :      0.03s CPU      0.03s WALL (     642 calls)
     h_psi        :      0.17s CPU      0.18s WALL (     762 calls)
     g_psi        :      0.00s CPU      0.00s WALL (     462 calls)

     Called by h_psi:
     h_psi:calbec :      0.01s CPU      0.01s WALL (     762 calls)
     vloc_psi     :      0.15s CPU      0.16s WALL (     762 calls)
     add_vuspsi   :      0.01s CPU      0.01s WALL (     762 calls)

     General routines
     calbec       :      0.01s CPU      0.01s WALL (     762 calls)
     fft          :      0.14s CPU      0.14s WALL (      18 calls)
     ffts         :      0.02s CPU      0.02s WALL (       8 calls)
     fftw         :      0.11s CPU      0.12s WALL (    9240 calls)
     interpolate  :      0.02s CPU      0.02s WALL (       4 calls)

     Parallel routines

     PWSCF        :      0.51s CPU      0.53s WALL


   This run was terminated on:  16:38:56   2Jun2023            

=------------------------------------------------------------------------------=
   JOB DONE.
=------------------------------------------------------------------------------=
