### Running on host: ip-172-31-10-78

     Program PWSCF v.7.2 starts on  2Jun2023 at 16:38:49 

     This program is part of the open-source Quantum ESPRESSO suite
     for quantum simulation of materials; please cite
         "P. Giannozzi et al., J. Phys.:Condens. Matter 21 395502 (2009);
         "P. Giannozzi et al., J. Phys.:Condens. Matter 29 465901 (2017);
         "P. Giannozzi et al., J. Chem. Phys. 152 154105 (2020);
          URL http://www.quantum-espresso.org", 
     in publications or presentations arising from this work. More details at
     http://www.quantum-espresso.org/quote

     Parallel version (MPI), running on     1 processors

     MPI processes distributed on     1 nodes
     378 MiB available memory on the printing compute node when the environment starts

     Reading input from eos.Al.d/eos.Al.4.in

     Current dimensions of program PWSCF are:
     Max number of different atomic species (ntypx) = 10
     Max number of k-points (npk) =  40000
     Max angular momentum in pseudopotentials (lmaxx) =  4
     Message from routine setup:
     no reason to have ecutrho>4*ecutwfc

     Subspace diagonalization in iterative solution of the eigenvalue problem:
     a serial algorithm will be used


     G-vector sticks info
     --------------------
     sticks:   dense  smooth     PW     G-vecs:    dense   smooth      PW
     Sum         301     151     61                 3383     1243     331

     Using Slab Decomposition



     bravais-lattice index     =            2
     lattice parameter (alat)  =       7.3081  a.u.
     unit-cell volume          =      97.5771 (a.u.)^3
     number of atoms/cell      =            1
     number of atomic types    =            1
     number of electrons       =         3.00
     number of Kohn-Sham states=            6
     kinetic-energy cutoff     =      20.0000  Ry
     charge density cutoff     =     160.0000  Ry
     scf convergence threshold =      1.0E-06
     mixing beta               =       0.7000
     number of iterations used =            8  plain     mixing
     Exchange-correlation=  SLA  PZ   NOGX NOGC
                           (   1   1   0   0   0   0   0)

     celldm(1)=   7.308069  celldm(2)=   0.000000  celldm(3)=   0.000000
     celldm(4)=   0.000000  celldm(5)=   0.000000  celldm(6)=   0.000000

     crystal axes: (cart. coord. in units of alat)
               a(1) = (  -0.500000   0.000000   0.500000 )  
               a(2) = (   0.000000   0.500000   0.500000 )  
               a(3) = (  -0.500000   0.500000   0.000000 )  

     reciprocal axes: (cart. coord. in units 2 pi/alat)
               b(1) = ( -1.000000 -1.000000  1.000000 )  
               b(2) = (  1.000000  1.000000  1.000000 )  
               b(3) = ( -1.000000  1.000000 -1.000000 )  


     PseudoPot. # 1 for Al read from file:
     ./Al.pz-vbc.UPF
     MD5 check sum: c34c8b369e81ee50c191f4345b5f621b
     Pseudo is Norm-conserving, Zval =  3.0
     Generated by new atomic code, or converted to UPF format
     Using radial grid of  171 points,  2 beta functions with: 
                l(1) =   0
                l(2) =   1

     atomic species   valence    mass     pseudopotential
        Al             3.00    26.98000     Al( 1.00)

     48 Sym. Ops., with inversion, found



   Cartesian axes

     site n.     atom                  positions (alat units)
         1           Al  tau(   1) = (   0.0000000   0.0000000   0.0000000  )

     number of k points=    60  Marzari-Vanderbilt smearing, width (Ry)=  0.0200
                       cart. coord. in units 2pi/alat
        k(    1) = (  -0.0625000   0.0625000   0.0625000), wk =   0.0078125
        k(    2) = (  -0.1875000   0.1875000  -0.0625000), wk =   0.0234375
        k(    3) = (  -0.3125000   0.3125000  -0.1875000), wk =   0.0234375
        k(    4) = (  -0.4375000   0.4375000  -0.3125000), wk =   0.0234375
        k(    5) = (   0.4375000  -0.4375000   0.5625000), wk =   0.0234375
        k(    6) = (   0.3125000  -0.3125000   0.4375000), wk =   0.0234375
        k(    7) = (   0.1875000  -0.1875000   0.3125000), wk =   0.0234375
        k(    8) = (   0.0625000  -0.0625000   0.1875000), wk =   0.0234375
        k(    9) = (  -0.0625000   0.3125000   0.0625000), wk =   0.0234375
        k(   10) = (  -0.1875000   0.4375000  -0.0625000), wk =   0.0468750
        k(   11) = (  -0.3125000   0.5625000  -0.1875000), wk =   0.0468750
        k(   12) = (   0.5625000  -0.3125000   0.6875000), wk =   0.0468750
        k(   13) = (   0.4375000  -0.1875000   0.5625000), wk =   0.0468750
        k(   14) = (   0.3125000  -0.0625000   0.4375000), wk =   0.0468750
        k(   15) = (   0.1875000   0.0625000   0.3125000), wk =   0.0468750
        k(   16) = (  -0.0625000   0.5625000   0.0625000), wk =   0.0234375
        k(   17) = (  -0.1875000   0.6875000  -0.0625000), wk =   0.0468750
        k(   18) = (   0.6875000  -0.1875000   0.8125000), wk =   0.0468750
        k(   19) = (   0.5625000  -0.0625000   0.6875000), wk =   0.0468750
        k(   20) = (   0.4375000   0.0625000   0.5625000), wk =   0.0468750
        k(   21) = (   0.3125000   0.1875000   0.4375000), wk =   0.0468750
        k(   22) = (  -0.0625000   0.8125000   0.0625000), wk =   0.0234375
        k(   23) = (   0.8125000  -0.0625000   0.9375000), wk =   0.0468750
        k(   24) = (   0.6875000   0.0625000   0.8125000), wk =   0.0468750
        k(   25) = (   0.5625000   0.1875000   0.6875000), wk =   0.0468750
        k(   26) = (   0.4375000   0.3125000   0.5625000), wk =   0.0468750
        k(   27) = (  -0.0625000  -0.9375000   0.0625000), wk =   0.0234375
        k(   28) = (  -0.1875000  -0.8125000  -0.0625000), wk =   0.0468750
        k(   29) = (  -0.3125000  -0.6875000  -0.1875000), wk =   0.0468750
        k(   30) = (  -0.0625000  -0.6875000   0.0625000), wk =   0.0234375
        k(   31) = (  -0.1875000  -0.5625000  -0.0625000), wk =   0.0468750
        k(   32) = (  -0.0625000  -0.4375000   0.0625000), wk =   0.0234375
        k(   33) = (  -0.1875000   0.1875000   0.1875000), wk =   0.0078125
        k(   34) = (  -0.3125000   0.3125000   0.0625000), wk =   0.0234375
        k(   35) = (  -0.4375000   0.4375000  -0.0625000), wk =   0.0234375
        k(   36) = (   0.4375000  -0.4375000   0.8125000), wk =   0.0234375
        k(   37) = (   0.3125000  -0.3125000   0.6875000), wk =   0.0234375
        k(   38) = (   0.1875000  -0.1875000   0.5625000), wk =   0.0234375
        k(   39) = (  -0.1875000   0.4375000   0.1875000), wk =   0.0234375
        k(   40) = (  -0.3125000   0.5625000   0.0625000), wk =   0.0468750
        k(   41) = (   0.5625000  -0.3125000   0.9375000), wk =   0.0468750
        k(   42) = (   0.4375000  -0.1875000   0.8125000), wk =   0.0468750
        k(   43) = (   0.3125000  -0.0625000   0.6875000), wk =   0.0468750
        k(   44) = (  -0.1875000   0.6875000   0.1875000), wk =   0.0234375
        k(   45) = (   0.6875000  -0.1875000   1.0625000), wk =   0.0468750
        k(   46) = (   0.5625000  -0.0625000   0.9375000), wk =   0.0468750
        k(   47) = (   0.4375000   0.0625000   0.8125000), wk =   0.0468750
        k(   48) = (  -0.1875000  -1.0625000   0.1875000), wk =   0.0234375
        k(   49) = (  -0.3125000  -0.9375000   0.0625000), wk =   0.0468750
        k(   50) = (  -0.1875000  -0.8125000   0.1875000), wk =   0.0234375
        k(   51) = (  -0.3125000   0.3125000   0.3125000), wk =   0.0078125
        k(   52) = (  -0.4375000   0.4375000   0.1875000), wk =   0.0234375
        k(   53) = (   0.4375000  -0.4375000   1.0625000), wk =   0.0234375
        k(   54) = (   0.3125000  -0.3125000   0.9375000), wk =   0.0234375
        k(   55) = (  -0.3125000   0.5625000   0.3125000), wk =   0.0234375
        k(   56) = (   0.5625000  -0.3125000   1.1875000), wk =   0.0468750
        k(   57) = (   0.4375000  -0.1875000   1.0625000), wk =   0.0468750
        k(   58) = (  -0.3125000  -1.1875000   0.3125000), wk =   0.0234375
        k(   59) = (  -0.4375000   0.4375000   0.4375000), wk =   0.0078125
        k(   60) = (   0.4375000  -0.4375000   1.3125000), wk =   0.0234375

     Dense  grid:     3383 G-vectors     FFT dimensions: (  24,  24,  24)

     Smooth grid:     1243 G-vectors     FFT dimensions: (  15,  15,  15)

     Estimated max dynamical RAM per process >       3.32 MB

     Initial potential from superposition of free atoms

     starting charge       2.9979, renormalised to       3.0000
     Starting wfcs are    9 randomized atomic wfcs

     total cpu time spent up to now is        0.2 secs

     Self-consistent Calculation

     iteration #  1     ecut=    20.00 Ry     beta= 0.70
     Davidson diagonalization with overlap
     ethr =  1.00E-02,  avg # of iterations =  3.1

     Threshold (ethr) on eigenvalues was too large:
     Diagonalizing with lowered threshold

     Davidson diagonalization with overlap
     ethr =  1.98E-04,  avg # of iterations =  2.0

     total cpu time spent up to now is        0.4 secs

     total energy              =      -4.18796349 Ry
     estimated scf accuracy    <       0.00592179 Ry

     iteration #  2     ecut=    20.00 Ry     beta= 0.70
     Davidson diagonalization with overlap
     ethr =  1.97E-04,  avg # of iterations =  1.0

     negative rho (up, down):  1.273E-06 0.000E+00

     total cpu time spent up to now is        0.5 secs

     total energy              =      -4.18801393 Ry
     estimated scf accuracy    <       0.00046665 Ry

     iteration #  3     ecut=    20.00 Ry     beta= 0.70
     Davidson diagonalization with overlap
     ethr =  1.56E-05,  avg # of iterations =  1.7

     total cpu time spent up to now is        0.5 secs

     End of self-consistent calculation

          k =-0.0625 0.0625 0.0625 (   153 PWs)   bands (ev):

    -2.7961  20.6128  22.1313  22.1315  24.9058  24.9058

          k =-0.1875 0.1875-0.0625 (   153 PWs)   bands (ev):

    -2.1727  17.0508  19.4801  22.7094  25.1835  25.4495

          k =-0.3125 0.3125-0.1875 (   148 PWs)   bands (ev):

    -0.6327  12.0393  18.6982  22.1779  23.2579  24.8446

          k =-0.4375 0.4375-0.3125 (   149 PWs)   bands (ev):

     1.7777   7.5980  18.7006  21.1864  22.2470  22.8629

          k = 0.4375-0.4375 0.5625 (   151 PWs)   bands (ev):

     3.8133   5.0533  19.4646  19.8991  21.5585  23.0345

          k = 0.3125-0.3125 0.4375 (   148 PWs)   bands (ev):

     0.8814   9.0041  19.3777  20.7119  21.3092  24.5749

          k = 0.1875-0.1875 0.3125 (   150 PWs)   bands (ev):

    -1.2455  13.6692  19.6037  21.0700  23.4338  25.8110

          k = 0.0625-0.0625 0.1875 (   153 PWs)   bands (ev):

    -2.4838  18.8548  20.5601  21.5986  24.2631  26.1633

          k =-0.0625 0.3125 0.0625 (   152 PWs)   bands (ev):

    -1.8624  17.2456  19.0802  20.1723  23.0577  23.3466

          k =-0.1875 0.4375-0.0625 (   146 PWs)   bands (ev):

    -0.6324  14.0460  16.7402  19.9342  20.9282  24.0214

          k =-0.3125 0.5625-0.1875 (   147 PWs)   bands (ev):

     1.4798   9.5330  16.3140  17.6352  21.0539  26.0933

          k = 0.5625-0.3125 0.6875 (   150 PWs)   bands (ev):

     4.3829   5.6322  15.7876  17.0853  21.6799  24.6025

          k = 0.4375-0.1875 0.5625 (   148 PWs)   bands (ev):

     2.3696   8.1366  15.0905  18.3292  23.0099  23.7931

          k = 0.3125-0.0625 0.4375 (   149 PWs)   bands (ev):

    -0.0240  12.4037  15.2710  20.4204  23.4583  25.0523

          k = 0.1875 0.0625 0.3125 (   150 PWs)   bands (ev):

    -1.5534  15.4233  18.0323  22.0842  23.2508  24.9559

          k =-0.0625 0.5625 0.0625 (   147 PWs)   bands (ev):

     0.2793  14.7483  16.3388  16.8360  17.8181  21.4756

          k =-0.1875 0.6875-0.0625 (   145 PWs)   bands (ev):

     2.0732  12.0706  13.5667  15.1325  19.0524  22.4916

          k = 0.6875-0.1875 0.8125 (   148 PWs)   bands (ev):

     4.6802   8.1119  11.7790  15.1968  19.7661  26.2978

          k = 0.5625-0.0625 0.6875 (   147 PWs)   bands (ev):

     4.6910   7.9754  10.8739  16.2276  20.9576  27.8725

          k = 0.4375 0.0625 0.5625 (   145 PWs)   bands (ev):

     2.0742   9.9131  12.8394  18.0706  22.8368  25.4307

          k = 0.3125 0.1875 0.4375 (   148 PWs)   bands (ev):

     0.2788  10.6534  17.4393  20.6318  21.9218  25.1632

          k =-0.0625 0.8125 0.0625 (   146 PWs)   bands (ev):

     3.5318  10.5743  13.3842  15.5981  16.3981  20.2362

          k = 0.8125-0.0625 0.9375 (   146 PWs)   bands (ev):

     5.7219   8.4383  11.3159  14.2387  18.2311  21.7667

          k = 0.6875 0.0625 0.8125 (   144 PWs)   bands (ev):

     6.5333   7.7675   9.5057  14.9157  19.4965  26.0952

          k = 0.5625 0.1875 0.6875 (   147 PWs)   bands (ev):

     4.9515   6.1907  13.1706  16.5018  21.2081  26.1394

          k = 0.4375 0.3125 0.5625 (   149 PWs)   bands (ev):

     2.9567   6.4632  17.6481  18.8470  22.2512  23.3603

          k =-0.0625-0.9375 0.0625 (   150 PWs)   bands (ev):

     5.4436   8.1699  13.0973  15.3507  16.1174  19.9730

          k =-0.1875-0.8125-0.0625 (   146 PWs)   bands (ev):

     3.8210  10.7592  11.6568  14.5208  18.5056  22.0125

          k =-0.3125-0.6875-0.1875 (   146 PWs)   bands (ev):

     2.9561   8.6856  14.4055  15.8092  20.2961  26.6084

          k =-0.0625-0.6875 0.0625 (   147 PWs)   bands (ev):

     1.7768  13.2807  13.9889  16.0919  16.9602  20.7472

          k =-0.1875-0.5625-0.0625 (   146 PWs)   bands (ev):

     0.5808  12.9319  15.5823  16.8680  19.8651  23.1771

          k =-0.0625-0.4375 0.0625 (   147 PWs)   bands (ev):

    -0.9383  15.8715  17.8334  18.7846  19.6890  22.3701

          k =-0.1875 0.1875 0.1875 (   150 PWs)   bands (ev):

    -1.8625  15.2913  21.1001  21.1001  24.6921  26.1485

          k =-0.3125 0.3125 0.0625 (   148 PWs)   bands (ev):

    -0.9385  13.7849  16.5813  22.9870  23.8697  25.0746

          k =-0.4375 0.4375-0.0625 (   148 PWs)   bands (ev):

     0.8814  11.0223  13.9473  20.4308  22.5972  25.5590

          k = 0.4375-0.4375 0.8125 (   150 PWs)   bands (ev):

     3.5391   7.0111  14.0207  18.6317  20.6822  25.9255

          k = 0.3125-0.3125 0.6875 (   146 PWs)   bands (ev):

     3.5381   7.0263  15.0560  17.6071  19.5258  26.9682

          k = 0.1875-0.1875 0.5625 (   147 PWs)   bands (ev):

     0.8815  11.1741  16.8886  17.3437  19.1412  25.0628

          k =-0.1875 0.4375 0.1875 (   148 PWs)   bands (ev):

    -0.3277  12.2905  18.3467  19.7282  20.5068  25.8827

          k =-0.3125 0.5625 0.0625 (   145 PWs)   bands (ev):

     1.1812  11.2928  14.1598  17.3609  22.5380  25.2308

          k = 0.5625-0.3125 0.9375 (   148 PWs)   bands (ev):

     3.5395   9.0780  11.9554  15.2513  23.9788  24.8056

          k = 0.4375-0.1875 0.8125 (   147 PWs)   bands (ev):

     5.5059   6.7529  12.4623  14.0526  22.6431  25.7871

          k = 0.3125-0.0625 0.6875 (   147 PWs)   bands (ev):

     2.6628  10.4522  13.1400  14.6090  21.7663  24.7547

          k =-0.1875 0.6875 0.1875 (   145 PWs)   bands (ev):

     2.3687  10.3229  13.9551  16.5957  18.2740  24.3949

          k = 0.6875-0.1875 1.0625 (   148 PWs)   bands (ev):

     4.3967   9.8637  11.3336  13.1685  21.2354  24.3415

          k = 0.5625-0.0625 0.9375 (   149 PWs)   bands (ev):

     7.0860   8.2083   9.7448  11.6267  23.9795  26.4548

          k = 0.4375 0.0625 0.8125 (   147 PWs)   bands (ev):

     5.2503   8.5177  11.1686  12.7878  24.2214  25.4727

          k =-0.1875-1.0625 0.1875 (   142 PWs)   bands (ev):

     5.9979   8.5930   9.7335  15.8520  17.3929  23.6926

          k =-0.3125-0.9375 0.0625 (   146 PWs)   bands (ev):

     6.2748   8.8792   9.7772  12.7784  20.9667  24.1221

          k =-0.1875-0.8125 0.1875 (   144 PWs)   bands (ev):

     4.1090   9.7021  11.2880  16.0998  17.6887  23.9303

          k =-0.3125 0.3125 0.3125 (   150 PWs)   bands (ev):

    -0.0240  10.4003  20.6517  20.6518  23.7821  23.7823

          k =-0.4375 0.4375 0.1875 (   148 PWs)   bands (ev):

     1.1812   9.2611  16.1769  20.6851  22.7508  23.7890

          k = 0.4375-0.4375 1.0625 (   146 PWs)   bands (ev):

     3.2496   8.8054  11.7326  18.3810  20.4377  27.7690

          k = 0.3125-0.3125 0.9375 (   144 PWs)   bands (ev):

     6.0786   7.1696  10.0371  16.8578  18.6985  28.4448

          k =-0.3125 0.5625 0.3125 (   147 PWs)   bands (ev):

     2.0742   7.8753  17.9628  18.3631  20.2886  25.6358

          k = 0.5625-0.3125 1.1875 (   148 PWs)   bands (ev):

     3.8274   7.2914  14.1417  15.6057  23.0980  24.3119

          k = 0.4375-0.1875 1.0625 (   148 PWs)   bands (ev):

     6.3490   7.4417  10.2610  13.6670  22.3966  27.4066

          k =-0.3125-1.1875 0.3125 (   149 PWs)   bands (ev):

     5.2234   6.4846  12.3577  17.1057  18.9797  28.5663

          k =-0.4375 0.4375 0.4375 (   147 PWs)   bands (ev):

     2.6640   6.1809  20.9117  20.9117  22.0066  22.0067

          k = 0.4375-0.4375 1.3125 (   147 PWs)   bands (ev):

     4.0999   5.3429  16.6742  19.1376  21.1247  24.3437

     the Fermi energy is     9.0508 ev

!    total energy              =      -4.18801979 Ry
     estimated scf accuracy    <       0.00000032 Ry
     smearing contrib. (-TS)   =       0.00012318 Ry
     internal energy E=F+TS    =      -4.18814297 Ry

     The total energy is F=E-TS. E is the sum of the following terms:
     one-electron contribution =       3.12114517 Ry
     hartree contribution      =       0.01146938 Ry
     xc contribution           =      -1.67442876 Ry
     ewald contribution        =      -5.64632876 Ry

     convergence has been achieved in   3 iterations

     Writing all to output data dir ./tmp/Al.save/

     init_run     :      0.22s CPU      0.22s WALL (       1 calls)
     electrons    :      0.27s CPU      0.29s WALL (       1 calls)

     Called by init_run:
     wfcinit      :      0.05s CPU      0.05s WALL (       1 calls)
     potinit      :      0.02s CPU      0.02s WALL (       1 calls)
     hinit0       :      0.15s CPU      0.15s WALL (       1 calls)

     Called by electrons:
     c_bands      :      0.24s CPU      0.24s WALL (       4 calls)
     sum_band     :      0.03s CPU      0.04s WALL (       4 calls)
     v_of_rho     :      0.00s CPU      0.00s WALL (       4 calls)
     mix_rho      :      0.00s CPU      0.00s WALL (       4 calls)

     Called by c_bands:
     init_us_2    :      0.01s CPU      0.01s WALL (     540 calls)
     init_us_2:cp :      0.01s CPU      0.01s WALL (     540 calls)
     cegterg      :      0.23s CPU      0.23s WALL (     240 calls)

     Called by *egterg:
     cdiaghg      :      0.03s CPU      0.03s WALL (     652 calls)
     h_psi        :      0.18s CPU      0.18s WALL (     772 calls)
     g_psi        :      0.00s CPU      0.00s WALL (     472 calls)

     Called by h_psi:
     h_psi:calbec :      0.01s CPU      0.01s WALL (     772 calls)
     vloc_psi     :      0.16s CPU      0.16s WALL (     772 calls)
     add_vuspsi   :      0.01s CPU      0.01s WALL (     772 calls)

     General routines
     calbec       :      0.01s CPU      0.01s WALL (     772 calls)
     fft          :      0.14s CPU      0.14s WALL (      18 calls)
     ffts         :      0.02s CPU      0.02s WALL (       8 calls)
     fftw         :      0.12s CPU      0.12s WALL (    9314 calls)
     interpolate  :      0.02s CPU      0.02s WALL (       4 calls)

     Parallel routines

     PWSCF        :      0.51s CPU      0.53s WALL


   This run was terminated on:  16:38:49   2Jun2023            

=------------------------------------------------------------------------------=
   JOB DONE.
=------------------------------------------------------------------------------=
