### Running on host: ip-172-31-10-78

     Program PWSCF v.7.2 starts on  2Jun2023 at 16:38:46 

     This program is part of the open-source Quantum ESPRESSO suite
     for quantum simulation of materials; please cite
         "P. Giannozzi et al., J. Phys.:Condens. Matter 21 395502 (2009);
         "P. Giannozzi et al., J. Phys.:Condens. Matter 29 465901 (2017);
         "P. Giannozzi et al., J. Chem. Phys. 152 154105 (2020);
          URL http://www.quantum-espresso.org", 
     in publications or presentations arising from this work. More details at
     http://www.quantum-espresso.org/quote

     Parallel version (MPI), running on     1 processors

     MPI processes distributed on     1 nodes
     378 MiB available memory on the printing compute node when the environment starts

     Reading input from eos.Al.d/eos.Al.1.in

     Current dimensions of program PWSCF are:
     Max number of different atomic species (ntypx) = 10
     Max number of k-points (npk) =  40000
     Max angular momentum in pseudopotentials (lmaxx) =  4
     Message from routine setup:
     no reason to have ecutrho>4*ecutwfc

     Subspace diagonalization in iterative solution of the eigenvalue problem:
     a serial algorithm will be used


     G-vector sticks info
     --------------------
     sticks:   dense  smooth     PW     G-vecs:    dense   smooth      PW
     Sum         283     151     61                 3143     1139     307

     Using Slab Decomposition



     bravais-lattice index     =            2
     lattice parameter (alat)  =       7.1799  a.u.
     unit-cell volume          =      92.5310 (a.u.)^3
     number of atoms/cell      =            1
     number of atomic types    =            1
     number of electrons       =         3.00
     number of Kohn-Sham states=            6
     kinetic-energy cutoff     =      20.0000  Ry
     charge density cutoff     =     160.0000  Ry
     scf convergence threshold =      1.0E-06
     mixing beta               =       0.7000
     number of iterations used =            8  plain     mixing
     Exchange-correlation=  SLA  PZ   NOGX NOGC
                           (   1   1   0   0   0   0   0)

     celldm(1)=   7.179857  celldm(2)=   0.000000  celldm(3)=   0.000000
     celldm(4)=   0.000000  celldm(5)=   0.000000  celldm(6)=   0.000000

     crystal axes: (cart. coord. in units of alat)
               a(1) = (  -0.500000   0.000000   0.500000 )  
               a(2) = (   0.000000   0.500000   0.500000 )  
               a(3) = (  -0.500000   0.500000   0.000000 )  

     reciprocal axes: (cart. coord. in units 2 pi/alat)
               b(1) = ( -1.000000 -1.000000  1.000000 )  
               b(2) = (  1.000000  1.000000  1.000000 )  
               b(3) = ( -1.000000  1.000000 -1.000000 )  


     PseudoPot. # 1 for Al read from file:
     ./Al.pz-vbc.UPF
     MD5 check sum: c34c8b369e81ee50c191f4345b5f621b
     Pseudo is Norm-conserving, Zval =  3.0
     Generated by new atomic code, or converted to UPF format
     Using radial grid of  171 points,  2 beta functions with: 
                l(1) =   0
                l(2) =   1

     atomic species   valence    mass     pseudopotential
        Al             3.00    26.98000     Al( 1.00)

     48 Sym. Ops., with inversion, found



   Cartesian axes

     site n.     atom                  positions (alat units)
         1           Al  tau(   1) = (   0.0000000   0.0000000   0.0000000  )

     number of k points=    60  Marzari-Vanderbilt smearing, width (Ry)=  0.0200
                       cart. coord. in units 2pi/alat
        k(    1) = (  -0.0625000   0.0625000   0.0625000), wk =   0.0078125
        k(    2) = (  -0.1875000   0.1875000  -0.0625000), wk =   0.0234375
        k(    3) = (  -0.3125000   0.3125000  -0.1875000), wk =   0.0234375
        k(    4) = (  -0.4375000   0.4375000  -0.3125000), wk =   0.0234375
        k(    5) = (   0.4375000  -0.4375000   0.5625000), wk =   0.0234375
        k(    6) = (   0.3125000  -0.3125000   0.4375000), wk =   0.0234375
        k(    7) = (   0.1875000  -0.1875000   0.3125000), wk =   0.0234375
        k(    8) = (   0.0625000  -0.0625000   0.1875000), wk =   0.0234375
        k(    9) = (  -0.0625000   0.3125000   0.0625000), wk =   0.0234375
        k(   10) = (  -0.1875000   0.4375000  -0.0625000), wk =   0.0468750
        k(   11) = (  -0.3125000   0.5625000  -0.1875000), wk =   0.0468750
        k(   12) = (   0.5625000  -0.3125000   0.6875000), wk =   0.0468750
        k(   13) = (   0.4375000  -0.1875000   0.5625000), wk =   0.0468750
        k(   14) = (   0.3125000  -0.0625000   0.4375000), wk =   0.0468750
        k(   15) = (   0.1875000   0.0625000   0.3125000), wk =   0.0468750
        k(   16) = (  -0.0625000   0.5625000   0.0625000), wk =   0.0234375
        k(   17) = (  -0.1875000   0.6875000  -0.0625000), wk =   0.0468750
        k(   18) = (   0.6875000  -0.1875000   0.8125000), wk =   0.0468750
        k(   19) = (   0.5625000  -0.0625000   0.6875000), wk =   0.0468750
        k(   20) = (   0.4375000   0.0625000   0.5625000), wk =   0.0468750
        k(   21) = (   0.3125000   0.1875000   0.4375000), wk =   0.0468750
        k(   22) = (  -0.0625000   0.8125000   0.0625000), wk =   0.0234375
        k(   23) = (   0.8125000  -0.0625000   0.9375000), wk =   0.0468750
        k(   24) = (   0.6875000   0.0625000   0.8125000), wk =   0.0468750
        k(   25) = (   0.5625000   0.1875000   0.6875000), wk =   0.0468750
        k(   26) = (   0.4375000   0.3125000   0.5625000), wk =   0.0468750
        k(   27) = (  -0.0625000  -0.9375000   0.0625000), wk =   0.0234375
        k(   28) = (  -0.1875000  -0.8125000  -0.0625000), wk =   0.0468750
        k(   29) = (  -0.3125000  -0.6875000  -0.1875000), wk =   0.0468750
        k(   30) = (  -0.0625000  -0.6875000   0.0625000), wk =   0.0234375
        k(   31) = (  -0.1875000  -0.5625000  -0.0625000), wk =   0.0468750
        k(   32) = (  -0.0625000  -0.4375000   0.0625000), wk =   0.0234375
        k(   33) = (  -0.1875000   0.1875000   0.1875000), wk =   0.0078125
        k(   34) = (  -0.3125000   0.3125000   0.0625000), wk =   0.0234375
        k(   35) = (  -0.4375000   0.4375000  -0.0625000), wk =   0.0234375
        k(   36) = (   0.4375000  -0.4375000   0.8125000), wk =   0.0234375
        k(   37) = (   0.3125000  -0.3125000   0.6875000), wk =   0.0234375
        k(   38) = (   0.1875000  -0.1875000   0.5625000), wk =   0.0234375
        k(   39) = (  -0.1875000   0.4375000   0.1875000), wk =   0.0234375
        k(   40) = (  -0.3125000   0.5625000   0.0625000), wk =   0.0468750
        k(   41) = (   0.5625000  -0.3125000   0.9375000), wk =   0.0468750
        k(   42) = (   0.4375000  -0.1875000   0.8125000), wk =   0.0468750
        k(   43) = (   0.3125000  -0.0625000   0.6875000), wk =   0.0468750
        k(   44) = (  -0.1875000   0.6875000   0.1875000), wk =   0.0234375
        k(   45) = (   0.6875000  -0.1875000   1.0625000), wk =   0.0468750
        k(   46) = (   0.5625000  -0.0625000   0.9375000), wk =   0.0468750
        k(   47) = (   0.4375000   0.0625000   0.8125000), wk =   0.0468750
        k(   48) = (  -0.1875000  -1.0625000   0.1875000), wk =   0.0234375
        k(   49) = (  -0.3125000  -0.9375000   0.0625000), wk =   0.0468750
        k(   50) = (  -0.1875000  -0.8125000   0.1875000), wk =   0.0234375
        k(   51) = (  -0.3125000   0.3125000   0.3125000), wk =   0.0078125
        k(   52) = (  -0.4375000   0.4375000   0.1875000), wk =   0.0234375
        k(   53) = (   0.4375000  -0.4375000   1.0625000), wk =   0.0234375
        k(   54) = (   0.3125000  -0.3125000   0.9375000), wk =   0.0234375
        k(   55) = (  -0.3125000   0.5625000   0.3125000), wk =   0.0234375
        k(   56) = (   0.5625000  -0.3125000   1.1875000), wk =   0.0468750
        k(   57) = (   0.4375000  -0.1875000   1.0625000), wk =   0.0468750
        k(   58) = (  -0.3125000  -1.1875000   0.3125000), wk =   0.0234375
        k(   59) = (  -0.4375000   0.4375000   0.4375000), wk =   0.0078125
        k(   60) = (   0.4375000  -0.4375000   1.3125000), wk =   0.0234375

     Dense  grid:     3143 G-vectors     FFT dimensions: (  24,  24,  24)

     Smooth grid:     1139 G-vectors     FFT dimensions: (  15,  15,  15)

     Estimated max dynamical RAM per process >       3.18 MB

     Initial potential from superposition of free atoms

     starting charge       2.9979, renormalised to       3.0000
     Starting wfcs are    9 randomized atomic wfcs

     total cpu time spent up to now is        0.2 secs

     Self-consistent Calculation

     iteration #  1     ecut=    20.00 Ry     beta= 0.70
     Davidson diagonalization with overlap
     ethr =  1.00E-02,  avg # of iterations =  3.2

     Threshold (ethr) on eigenvalues was too large:
     Diagonalizing with lowered threshold

     Davidson diagonalization with overlap
     ethr =  2.01E-04,  avg # of iterations =  2.0

     total cpu time spent up to now is        0.4 secs

     total energy              =      -4.18459813 Ry
     estimated scf accuracy    <       0.00600598 Ry

     iteration #  2     ecut=    20.00 Ry     beta= 0.70
     Davidson diagonalization with overlap
     ethr =  2.00E-04,  avg # of iterations =  1.0

     negative rho (up, down):  1.127E-06 0.000E+00

     total cpu time spent up to now is        0.5 secs

     total energy              =      -4.18465304 Ry
     estimated scf accuracy    <       0.00048082 Ry

     iteration #  3     ecut=    20.00 Ry     beta= 0.70
     Davidson diagonalization with overlap
     ethr =  1.60E-05,  avg # of iterations =  1.6

     total cpu time spent up to now is        0.5 secs

     End of self-consistent calculation

          k =-0.0625 0.0625 0.0625 (   138 PWs)   bands (ev):

    -2.5860  21.5413  23.0989  23.0989  26.1942  26.1943

          k =-0.1875 0.1875-0.0625 (   146 PWs)   bands (ev):

    -1.9403  17.8722  20.4367  23.7019  26.5241  26.6456

          k =-0.3125 0.3125-0.1875 (   145 PWs)   bands (ev):

    -0.3469  12.7209  19.6281  23.1990  24.3670  25.9647

          k =-0.4375 0.4375-0.3125 (   145 PWs)   bands (ev):

     2.1419   8.1526  19.6186  22.1626  23.3512  23.9601

          k = 0.4375-0.4375 0.5625 (   141 PWs)   bands (ev):

     4.2261   5.5495  20.3736  20.8652  22.6510  24.1407

          k = 0.3125-0.3125 0.4375 (   143 PWs)   bands (ev):

     1.2175   9.5991  20.3376  21.5657  22.4815  25.7194

          k = 0.1875-0.1875 0.3125 (   143 PWs)   bands (ev):

    -0.9807  14.3982  20.5715  22.0377  24.5571  27.0006

          k = 0.0625-0.0625 0.1875 (   146 PWs)   bands (ev):

    -2.2626  19.7300  21.5387  22.5447  25.5489  27.3763

          k =-0.0625 0.3125 0.0625 (   146 PWs)   bands (ev):

    -1.6191  18.0640  20.0329  21.0763  24.0257  24.6714

          k =-0.1875 0.4375-0.0625 (   142 PWs)   bands (ev):

    -0.3466  14.7671  17.6154  20.8750  21.9146  25.2625

          k =-0.3125 0.5625-0.1875 (   142 PWs)   bands (ev):

     1.8350  10.1382  17.1263  18.5736  22.0880  27.2936

          k = 0.5625-0.3125 0.6875 (   138 PWs)   bands (ev):

     4.8103   6.1459  16.5645  18.0365  22.7419  25.7405

          k = 0.4375-0.1875 0.5625 (   140 PWs)   bands (ev):

     2.7522   8.7035  15.8908  19.2790  24.1235  24.8843

          k = 0.3125-0.0625 0.4375 (   140 PWs)   bands (ev):

     0.2825  13.0774  16.1077  21.4204  24.5112  26.2250

          k = 0.1875 0.0625 0.3125 (   143 PWs)   bands (ev):

    -1.2993  16.1911  18.9524  23.0609  24.3550  26.1862

          k =-0.0625 0.5625 0.0625 (   139 PWs)   bands (ev):

     0.5957  15.4712  17.1135  17.7422  18.7009  22.7085

          k =-0.1875 0.6875-0.0625 (   139 PWs)   bands (ev):

     2.4473  12.7177  14.2609  16.0534  19.9656  23.6991

          k = 0.6875-0.1875 0.8125 (   137 PWs)   bands (ev):

     5.1288   8.6693  12.4677  16.0792  20.7499  27.5530

          k = 0.5625-0.0625 0.6875 (   138 PWs)   bands (ev):

     5.1383   8.5229  11.5660  17.1252  21.9928  29.0913

          k = 0.4375 0.0625 0.5625 (   139 PWs)   bands (ev):

     2.4477  10.5129  13.5954  19.0130  23.9349  26.5491

          k = 0.3125 0.1875 0.4375 (   144 PWs)   bands (ev):

     0.5952  11.2932  18.3252  21.5998  23.0028  26.3194

          k =-0.0625 0.8125 0.0625 (   135 PWs)   bands (ev):

     3.9507  11.2001  14.0651  16.4771  17.2313  21.4261

          k = 0.8125-0.0625 0.9375 (   136 PWs)   bands (ev):

     6.1987   9.0038  11.9634  15.1058  19.1197  22.9541

          k = 0.6875 0.0625 0.8125 (   135 PWs)   bands (ev):

     7.0219   8.2913  10.1753  15.7829  20.4703  27.3453

          k = 0.5625 0.1875 0.6875 (   140 PWs)   bands (ev):

     5.3926   6.7188  13.9033  17.4115  22.2517  27.3219

          k = 0.4375 0.3125 0.5625 (   140 PWs)   bands (ev):

     3.3556   6.9871  18.5054  19.8149  23.3387  24.4600

          k =-0.0625-0.9375 0.0625 (   140 PWs)   bands (ev):

     5.9138   8.7368  13.7661  16.2253  16.9431  21.1531

          k =-0.1875-0.8125-0.0625 (   135 PWs)   bands (ev):

     4.2483  11.3617  12.3299  15.4018  19.4024  23.2071

          k =-0.3125-0.6875-0.1875 (   140 PWs)   bands (ev):

     3.3564   9.2641  15.1299  16.7356  21.2996  27.8705

          k =-0.0625-0.6875 0.0625 (   135 PWs)   bands (ev):

     2.1419  13.9648  14.7041  16.9820  17.8099  21.9556

          k =-0.1875-0.5625-0.0625 (   140 PWs)   bands (ev):

     0.9072  13.6149  16.3724  17.7877  20.8046  24.4022

          k =-0.0625-0.4375 0.0625 (   141 PWs)   bands (ev):

    -0.6628  16.6394  18.7599  19.6237  20.6205  23.6328

          k =-0.1875 0.1875 0.1875 (   150 PWs)   bands (ev):

    -1.6193  16.0691  22.0952  22.0952  25.8298  27.3936

          k =-0.3125 0.3125 0.0625 (   142 PWs)   bands (ev):

    -0.6631  14.5014  17.4611  24.0910  24.8991  26.2191

          k =-0.4375 0.4375-0.0625 (   141 PWs)   bands (ev):

     1.2173  11.6551  14.7439  21.4367  23.6832  26.6706

          k = 0.4375-0.4375 0.8125 (   136 PWs)   bands (ev):

     3.9552   7.5486  14.7916  19.5838  21.7204  27.0964

          k = 0.3125-0.3125 0.6875 (   138 PWs)   bands (ev):

     3.9538   7.5643  15.8362  18.5312  20.5347  28.1805

          k = 0.1875-0.1875 0.5625 (   140 PWs)   bands (ev):

     1.2176  11.8233  17.6859  18.2603  20.1446  26.2941

          k =-0.1875 0.4375 0.1875 (   142 PWs)   bands (ev):

    -0.0315  12.9759  19.2856  20.5451  21.6252  27.1336

          k =-0.3125 0.5625 0.0625 (   141 PWs)   bands (ev):

     1.5268  11.9311  14.9435  18.2854  23.5636  26.4829

          k = 0.5625-0.3125 0.9375 (   138 PWs)   bands (ev):

     3.9570   9.6536  12.6624  16.1370  25.1225  25.8997

          k = 0.4375-0.1875 0.8125 (   139 PWs)   bands (ev):

     5.9627   7.2925  13.1221  14.9520  23.7207  26.9612

          k = 0.3125-0.0625 0.6875 (   140 PWs)   bands (ev):

     3.0549  11.0630  13.8238  15.5274  22.7681  26.0018

          k =-0.1875 0.6875 0.1875 (   139 PWs)   bands (ev):

     2.7516  10.9402  14.6970  17.4960  19.2216  25.6098

          k = 0.6875-0.1875 1.0625 (   136 PWs)   bands (ev):

     4.8391  10.4469  11.9559  14.0694  22.2205  25.5796

          k = 0.5625-0.0625 0.9375 (   141 PWs)   bands (ev):

     7.5887   8.7463  10.3113  12.5158  25.0629  27.7320

          k = 0.4375 0.0625 0.8125 (   140 PWs)   bands (ev):

     5.7133   9.0755  11.7814  13.6795  25.3179  26.6513

          k =-0.1875-1.0625 0.1875 (   134 PWs)   bands (ev):

     6.4802   9.1225  10.4144  16.7367  18.2966  24.8899

          k =-0.3125-0.9375 0.0625 (   138 PWs)   bands (ev):

     6.7640   9.4170  10.4100  13.6376  21.9429  25.3535

          k =-0.1875-0.8125 0.1875 (   139 PWs)   bands (ev):

     4.5435  10.2796  11.9852  16.9887  18.6065  25.1328

          k =-0.3125 0.3125 0.3125 (   144 PWs)   bands (ev):

     0.2823  11.0364  21.6410  21.6411  24.9060  24.9061

          k =-0.4375 0.4375 0.1875 (   143 PWs)   bands (ev):

     1.5267   9.8604  17.0217  21.6899  23.8410  24.8886

          k = 0.4375-0.4375 1.0625 (   136 PWs)   bands (ev):

     3.6586   9.3746  12.4572  19.3273  21.4650  28.9770

          k = 0.3125-0.3125 0.9375 (   137 PWs)   bands (ev):

     6.5489   7.7050  10.7112  17.7659  19.6651  29.7547

          k =-0.3125 0.5625 0.3125 (   142 PWs)   bands (ev):

     2.4476   8.4367  18.8063  19.3019  21.3477  26.8095

          k = 0.5625-0.3125 1.1875 (   139 PWs)   bands (ev):

     4.2517   7.8354  14.8624  16.5308  24.1981  25.4348

          k = 0.4375-0.1875 1.0625 (   140 PWs)   bands (ev):

     6.8273   7.9827  10.9140  14.5211  23.4652  28.6235

          k =-0.3125-1.1875 0.3125 (   138 PWs)   bands (ev):

     5.6731   7.0185  13.0732  18.0200  19.9602  29.8784

          k =-0.4375 0.4375 0.4375 (   147 PWs)   bands (ev):

     3.0536   6.6960  21.8645  21.8645  23.1218  23.1218

          k = 0.4375-0.4375 1.3125 (   142 PWs)   bands (ev):

     4.5188   5.8477  17.5149  20.0949  22.1830  25.4751

     the Fermi energy is     9.6212 ev

!    total energy              =      -4.18465848 Ry
     estimated scf accuracy    <       0.00000029 Ry
     smearing contrib. (-TS)   =       0.00015191 Ry
     internal energy E=F+TS    =      -4.18481038 Ry

     The total energy is F=E-TS. E is the sum of the following terms:
     one-electron contribution =       3.25174568 Ry
     hartree contribution      =       0.01301109 Ry
     xc contribution           =      -1.70241108 Ry
     ewald contribution        =      -5.74715607 Ry

     convergence has been achieved in   3 iterations

     Writing all to output data dir ./tmp/Al.save/

     init_run     :      0.22s CPU      0.22s WALL (       1 calls)
     electrons    :      0.26s CPU      0.29s WALL (       1 calls)

     Called by init_run:
     wfcinit      :      0.05s CPU      0.05s WALL (       1 calls)
     potinit      :      0.02s CPU      0.02s WALL (       1 calls)
     hinit0       :      0.14s CPU      0.14s WALL (       1 calls)

     Called by electrons:
     c_bands      :      0.22s CPU      0.24s WALL (       4 calls)
     sum_band     :      0.04s CPU      0.04s WALL (       4 calls)
     v_of_rho     :      0.00s CPU      0.00s WALL (       4 calls)
     mix_rho      :      0.00s CPU      0.00s WALL (       4 calls)

     Called by c_bands:
     init_us_2    :      0.01s CPU      0.01s WALL (     540 calls)
     init_us_2:cp :      0.01s CPU      0.01s WALL (     540 calls)
     cegterg      :      0.21s CPU      0.23s WALL (     240 calls)

     Called by *egterg:
     cdiaghg      :      0.03s CPU      0.03s WALL (     657 calls)
     h_psi        :      0.17s CPU      0.19s WALL (     777 calls)
     g_psi        :      0.00s CPU      0.00s WALL (     477 calls)

     Called by h_psi:
     h_psi:calbec :      0.01s CPU      0.01s WALL (     777 calls)
     vloc_psi     :      0.15s CPU      0.17s WALL (     777 calls)
     add_vuspsi   :      0.01s CPU      0.01s WALL (     777 calls)

     General routines
     calbec       :      0.01s CPU      0.01s WALL (     777 calls)
     fft          :      0.14s CPU      0.14s WALL (      18 calls)
     ffts         :      0.02s CPU      0.02s WALL (       8 calls)
     fftw         :      0.11s CPU      0.13s WALL (    9352 calls)
     interpolate  :      0.02s CPU      0.02s WALL (       4 calls)

     Parallel routines

     PWSCF        :      0.49s CPU      0.53s WALL


   This run was terminated on:  16:38:47   2Jun2023            

=------------------------------------------------------------------------------=
   JOB DONE.
=------------------------------------------------------------------------------=
