### Running on host: ip-172-31-10-78

     Program PWSCF v.7.2 starts on  2Jun2023 at 16:38:53 

     This program is part of the open-source Quantum ESPRESSO suite
     for quantum simulation of materials; please cite
         "P. Giannozzi et al., J. Phys.:Condens. Matter 21 395502 (2009);
         "P. Giannozzi et al., J. Phys.:Condens. Matter 29 465901 (2017);
         "P. Giannozzi et al., J. Chem. Phys. 152 154105 (2020);
          URL http://www.quantum-espresso.org", 
     in publications or presentations arising from this work. More details at
     http://www.quantum-espresso.org/quote

     Parallel version (MPI), running on     1 processors

     MPI processes distributed on     1 nodes
     377 MiB available memory on the printing compute node when the environment starts

     Reading input from eos.Al.d/eos.Al.9.in

     Current dimensions of program PWSCF are:
     Max number of different atomic species (ntypx) = 10
     Max number of k-points (npk) =  40000
     Max angular momentum in pseudopotentials (lmaxx) =  4
     Message from routine setup:
     no reason to have ecutrho>4*ecutwfc

     Subspace diagonalization in iterative solution of the eigenvalue problem:
     a serial algorithm will be used


     G-vector sticks info
     --------------------
     sticks:   dense  smooth     PW     G-vecs:    dense   smooth      PW
     Sum         313     151     61                 3695     1243     331

     Using Slab Decomposition



     bravais-lattice index     =            2
     lattice parameter (alat)  =       7.5218  a.u.
     unit-cell volume          =     106.3892 (a.u.)^3
     number of atoms/cell      =            1
     number of atomic types    =            1
     number of electrons       =         3.00
     number of Kohn-Sham states=            6
     kinetic-energy cutoff     =      20.0000  Ry
     charge density cutoff     =     160.0000  Ry
     scf convergence threshold =      1.0E-06
     mixing beta               =       0.7000
     number of iterations used =            8  plain     mixing
     Exchange-correlation=  SLA  PZ   NOGX NOGC
                           (   1   1   0   0   0   0   0)

     celldm(1)=   7.521755  celldm(2)=   0.000000  celldm(3)=   0.000000
     celldm(4)=   0.000000  celldm(5)=   0.000000  celldm(6)=   0.000000

     crystal axes: (cart. coord. in units of alat)
               a(1) = (  -0.500000   0.000000   0.500000 )  
               a(2) = (   0.000000   0.500000   0.500000 )  
               a(3) = (  -0.500000   0.500000   0.000000 )  

     reciprocal axes: (cart. coord. in units 2 pi/alat)
               b(1) = ( -1.000000 -1.000000  1.000000 )  
               b(2) = (  1.000000  1.000000  1.000000 )  
               b(3) = ( -1.000000  1.000000 -1.000000 )  


     PseudoPot. # 1 for Al read from file:
     ./Al.pz-vbc.UPF
     MD5 check sum: c34c8b369e81ee50c191f4345b5f621b
     Pseudo is Norm-conserving, Zval =  3.0
     Generated by new atomic code, or converted to UPF format
     Using radial grid of  171 points,  2 beta functions with: 
                l(1) =   0
                l(2) =   1

     atomic species   valence    mass     pseudopotential
        Al             3.00    26.98000     Al( 1.00)

     48 Sym. Ops., with inversion, found



   Cartesian axes

     site n.     atom                  positions (alat units)
         1           Al  tau(   1) = (   0.0000000   0.0000000   0.0000000  )

     number of k points=    60  Marzari-Vanderbilt smearing, width (Ry)=  0.0200
                       cart. coord. in units 2pi/alat
        k(    1) = (  -0.0625000   0.0625000   0.0625000), wk =   0.0078125
        k(    2) = (  -0.1875000   0.1875000  -0.0625000), wk =   0.0234375
        k(    3) = (  -0.3125000   0.3125000  -0.1875000), wk =   0.0234375
        k(    4) = (  -0.4375000   0.4375000  -0.3125000), wk =   0.0234375
        k(    5) = (   0.4375000  -0.4375000   0.5625000), wk =   0.0234375
        k(    6) = (   0.3125000  -0.3125000   0.4375000), wk =   0.0234375
        k(    7) = (   0.1875000  -0.1875000   0.3125000), wk =   0.0234375
        k(    8) = (   0.0625000  -0.0625000   0.1875000), wk =   0.0234375
        k(    9) = (  -0.0625000   0.3125000   0.0625000), wk =   0.0234375
        k(   10) = (  -0.1875000   0.4375000  -0.0625000), wk =   0.0468750
        k(   11) = (  -0.3125000   0.5625000  -0.1875000), wk =   0.0468750
        k(   12) = (   0.5625000  -0.3125000   0.6875000), wk =   0.0468750
        k(   13) = (   0.4375000  -0.1875000   0.5625000), wk =   0.0468750
        k(   14) = (   0.3125000  -0.0625000   0.4375000), wk =   0.0468750
        k(   15) = (   0.1875000   0.0625000   0.3125000), wk =   0.0468750
        k(   16) = (  -0.0625000   0.5625000   0.0625000), wk =   0.0234375
        k(   17) = (  -0.1875000   0.6875000  -0.0625000), wk =   0.0468750
        k(   18) = (   0.6875000  -0.1875000   0.8125000), wk =   0.0468750
        k(   19) = (   0.5625000  -0.0625000   0.6875000), wk =   0.0468750
        k(   20) = (   0.4375000   0.0625000   0.5625000), wk =   0.0468750
        k(   21) = (   0.3125000   0.1875000   0.4375000), wk =   0.0468750
        k(   22) = (  -0.0625000   0.8125000   0.0625000), wk =   0.0234375
        k(   23) = (   0.8125000  -0.0625000   0.9375000), wk =   0.0468750
        k(   24) = (   0.6875000   0.0625000   0.8125000), wk =   0.0468750
        k(   25) = (   0.5625000   0.1875000   0.6875000), wk =   0.0468750
        k(   26) = (   0.4375000   0.3125000   0.5625000), wk =   0.0468750
        k(   27) = (  -0.0625000  -0.9375000   0.0625000), wk =   0.0234375
        k(   28) = (  -0.1875000  -0.8125000  -0.0625000), wk =   0.0468750
        k(   29) = (  -0.3125000  -0.6875000  -0.1875000), wk =   0.0468750
        k(   30) = (  -0.0625000  -0.6875000   0.0625000), wk =   0.0234375
        k(   31) = (  -0.1875000  -0.5625000  -0.0625000), wk =   0.0468750
        k(   32) = (  -0.0625000  -0.4375000   0.0625000), wk =   0.0234375
        k(   33) = (  -0.1875000   0.1875000   0.1875000), wk =   0.0078125
        k(   34) = (  -0.3125000   0.3125000   0.0625000), wk =   0.0234375
        k(   35) = (  -0.4375000   0.4375000  -0.0625000), wk =   0.0234375
        k(   36) = (   0.4375000  -0.4375000   0.8125000), wk =   0.0234375
        k(   37) = (   0.3125000  -0.3125000   0.6875000), wk =   0.0234375
        k(   38) = (   0.1875000  -0.1875000   0.5625000), wk =   0.0234375
        k(   39) = (  -0.1875000   0.4375000   0.1875000), wk =   0.0234375
        k(   40) = (  -0.3125000   0.5625000   0.0625000), wk =   0.0468750
        k(   41) = (   0.5625000  -0.3125000   0.9375000), wk =   0.0468750
        k(   42) = (   0.4375000  -0.1875000   0.8125000), wk =   0.0468750
        k(   43) = (   0.3125000  -0.0625000   0.6875000), wk =   0.0468750
        k(   44) = (  -0.1875000   0.6875000   0.1875000), wk =   0.0234375
        k(   45) = (   0.6875000  -0.1875000   1.0625000), wk =   0.0468750
        k(   46) = (   0.5625000  -0.0625000   0.9375000), wk =   0.0468750
        k(   47) = (   0.4375000   0.0625000   0.8125000), wk =   0.0468750
        k(   48) = (  -0.1875000  -1.0625000   0.1875000), wk =   0.0234375
        k(   49) = (  -0.3125000  -0.9375000   0.0625000), wk =   0.0468750
        k(   50) = (  -0.1875000  -0.8125000   0.1875000), wk =   0.0234375
        k(   51) = (  -0.3125000   0.3125000   0.3125000), wk =   0.0078125
        k(   52) = (  -0.4375000   0.4375000   0.1875000), wk =   0.0234375
        k(   53) = (   0.4375000  -0.4375000   1.0625000), wk =   0.0234375
        k(   54) = (   0.3125000  -0.3125000   0.9375000), wk =   0.0234375
        k(   55) = (  -0.3125000   0.5625000   0.3125000), wk =   0.0234375
        k(   56) = (   0.5625000  -0.3125000   1.1875000), wk =   0.0468750
        k(   57) = (   0.4375000  -0.1875000   1.0625000), wk =   0.0468750
        k(   58) = (  -0.3125000  -1.1875000   0.3125000), wk =   0.0234375
        k(   59) = (  -0.4375000   0.4375000   0.4375000), wk =   0.0078125
        k(   60) = (   0.4375000  -0.4375000   1.3125000), wk =   0.0234375

     Dense  grid:     3695 G-vectors     FFT dimensions: (  24,  24,  24)

     Smooth grid:     1243 G-vectors     FFT dimensions: (  15,  15,  15)

     Estimated max dynamical RAM per process >       3.53 MB

     Initial potential from superposition of free atoms

     starting charge       2.9979, renormalised to       3.0000

     negative rho (up, down):  2.967E-05 0.000E+00
     Starting wfcs are    9 randomized atomic wfcs

     total cpu time spent up to now is        0.2 secs

     Self-consistent Calculation

     iteration #  1     ecut=    20.00 Ry     beta= 0.70
     Davidson diagonalization with overlap
     ethr =  1.00E-02,  avg # of iterations =  2.9

     Threshold (ethr) on eigenvalues was too large:
     Diagonalizing with lowered threshold

     Davidson diagonalization with overlap
     ethr =  1.95E-04,  avg # of iterations =  2.0

     negative rho (up, down):  8.237E-06 0.000E+00

     total cpu time spent up to now is        0.4 secs

     total energy              =      -4.18933192 Ry
     estimated scf accuracy    <       0.00581900 Ry

     iteration #  2     ecut=    20.00 Ry     beta= 0.70
     Davidson diagonalization with overlap
     ethr =  1.94E-04,  avg # of iterations =  1.0

     negative rho (up, down):  4.969E-06 0.000E+00

     total cpu time spent up to now is        0.5 secs

     total energy              =      -4.18937151 Ry
     estimated scf accuracy    <       0.00044445 Ry

     iteration #  3     ecut=    20.00 Ry     beta= 0.70
     Davidson diagonalization with overlap
     ethr =  1.48E-05,  avg # of iterations =  1.8

     total cpu time spent up to now is        0.5 secs

     End of self-consistent calculation

          k =-0.0625 0.0625 0.0625 (   169 PWs)   bands (ev):

    -3.1120  19.1528  20.6068  20.6069  22.9240  22.9242

          k =-0.1875 0.1875-0.0625 (   161 PWs)   bands (ev):

    -2.5235  15.7645  17.9835  21.1371  23.1398  23.5851

          k =-0.3125 0.3125-0.1875 (   157 PWs)   bands (ev):

    -1.0678  10.9765  17.2411  20.5228  21.5941  23.1010

          k =-0.4375 0.4375-0.3125 (   158 PWs)   bands (ev):

     1.2178   6.7404  17.2537  19.5917  20.6109  21.1790

          k = 0.4375-0.4375 0.5625 (   160 PWs)   bands (ev):

     3.1708   4.2976  18.0093  18.3726  19.9081  21.3471

          k = 0.3125-0.3125 0.4375 (   156 PWs)   bands (ev):

     0.3669   8.0814  17.8723  19.3555  19.5193  22.8128

          k = 0.1875-0.1875 0.3125 (   158 PWs)   bands (ev):

    -1.6475  12.5301  18.0936  19.5342  21.7014  23.9421

          k = 0.0625-0.0625 0.1875 (   164 PWs)   bands (ev):

    -2.8173  17.4796  19.0264  20.1200  22.2530  24.2706

          k =-0.0625 0.3125 0.0625 (   162 PWs)   bands (ev):

    -2.2305  15.9581  17.5936  18.7665  21.2109  21.6469

          k =-0.1875 0.4375-0.0625 (   160 PWs)   bands (ev):

    -1.0675  12.9163  15.3693  18.4392  19.4092  22.1327

          k =-0.3125 0.5625-0.1875 (   158 PWs)   bands (ev):

     0.9349   8.5922  15.0264  16.1848  19.4628  24.2307

          k = 0.5625-0.3125 0.6875 (   165 PWs)   bands (ev):

     3.7170   4.8469  14.5542  15.6239  20.0420  22.8438

          k = 0.4375-0.1875 0.5625 (   159 PWs)   bands (ev):

     1.7808   7.2587  13.8338  16.8560  21.2840  22.1134

          k = 0.3125-0.0625 0.4375 (   157 PWs)   bands (ev):

    -0.4911  11.3531  13.9642  18.8547  21.8191  23.2340

          k = 0.1875 0.0625 0.3125 (   161 PWs)   bands (ev):

    -1.9386  14.2216  16.5945  20.5394  21.4993  23.1133

          k =-0.0625 0.5625 0.0625 (   158 PWs)   bands (ev):

    -0.2039  13.6097  15.0990  15.4325  16.4678  19.6041

          k =-0.1875 0.6875-0.0625 (   162 PWs)   bands (ev):

     1.4984  11.0573  12.4664  13.7179  17.6393  20.6464

          k = 0.6875-0.1875 0.8125 (   162 PWs)   bands (ev):

     3.9861   7.2460  10.6972  13.8442  18.2475  24.3606

          k = 0.5625-0.0625 0.6875 (   164 PWs)   bands (ev):

     3.9970   7.1282   9.7926  14.8439  19.3613  25.9728

          k = 0.4375 0.0625 0.5625 (   162 PWs)   bands (ev):

     1.4995   8.9803  11.6569  16.6089  21.1371  23.6896

          k = 0.3125 0.1875 0.4375 (   155 PWs)   bands (ev):

    -0.2043   9.6579  16.0507  19.0856  20.2841  23.3715

          k =-0.0625 0.8125 0.0625 (   162 PWs)   bands (ev):

     2.8867   9.5865  12.3100  14.2380  15.1264  18.4255

          k = 0.8125-0.0625 0.9375 (   163 PWs)   bands (ev):

     4.9870   7.5424  10.3063  12.9107  16.8577  19.9519

          k = 0.6875 0.0625 0.8125 (   164 PWs)   bands (ev):

     5.7758   6.9486   8.4629  13.5838  17.9927  24.1677

          k = 0.5625 0.1875 0.6875 (   163 PWs)   bands (ev):

     4.2623   5.3810  12.0188  15.0998  19.5974  24.3073

          k = 0.4375 0.3125 0.5625 (   161 PWs)   bands (ev):

     2.3405   5.6566  16.2882  17.3446  20.5764  21.6712

          k =-0.0625-0.9375 0.0625 (   160 PWs)   bands (ev):

     4.7203   7.2749  12.0424  14.0011  14.8581  18.1774

          k =-0.1875-0.8125-0.0625 (   162 PWs)   bands (ev):

     3.1630   9.8062  10.6041  13.1721  17.1191  20.1869

          k =-0.3125-0.6875-0.1875 (   160 PWs)   bands (ev):

     2.3388   7.7873  13.2568  14.3877  18.7479  24.6551

          k =-0.0625-0.6875 0.0625 (   162 PWs)   bands (ev):

     1.2167  12.1972  12.8605  14.7144  15.6622  18.9101

          k =-0.1875-0.5625-0.0625 (   159 PWs)   bands (ev):

     0.0820  11.8627  14.3280  15.4495  18.4109  21.3072

          k =-0.0625-0.4375 0.0625 (   161 PWs)   bands (ev):

    -1.3568  14.6630  16.3918  17.4761  18.2091  20.4659

          k =-0.1875 0.1875 0.1875 (   159 PWs)   bands (ev):

    -2.2307  14.0735  19.5351  19.5351  22.9107  24.2115

          k =-0.3125 0.3125 0.0625 (   159 PWs)   bands (ev):

    -1.3571  12.6649  15.2068  21.2146  22.2949  23.2985

          k =-0.4375 0.4375-0.0625 (   161 PWs)   bands (ev):

     0.3668  10.0372  12.7029  18.8546  20.9237  23.8284

          k = 0.4375-0.4375 0.8125 (   162 PWs)   bands (ev):

     2.8965   6.1823  12.8129  17.1484  19.0926  24.1160

          k = 0.3125-0.3125 0.6875 (   159 PWs)   bands (ev):

     2.8951   6.1954  13.8232  16.1715  17.9865  25.0927

          k = 0.1875-0.1875 0.5625 (   157 PWs)   bands (ev):

     0.3671  10.1622  15.6125  15.9201  17.6155  23.1716

          k =-0.1875 0.4375 0.1875 (   159 PWs)   bands (ev):

    -0.7790  11.2205  16.8847  18.4538  18.7629  23.9588

          k =-0.3125 0.5625 0.0625 (   158 PWs)   bands (ev):

     0.6515  10.2973  12.9277  15.9312  20.9426  23.3050

          k = 0.5625-0.3125 0.9375 (   159 PWs)   bands (ev):

     2.8952   8.1856  10.8428  13.8964  22.2042  23.1068

          k = 0.4375-0.1875 0.8125 (   163 PWs)   bands (ev):

     4.7929   5.9222  11.4174  12.6839  20.9717  23.9662

          k = 0.3125-0.0625 0.6875 (   159 PWs)   bands (ev):

     2.0595   9.5013  12.0542  13.2087  20.2103  22.8372

          k =-0.1875 0.6875 0.1875 (   161 PWs)   bands (ev):

     1.7795   9.3592  12.7828  15.1985  16.8250  22.5290

          k = 0.6875-0.1875 1.0625 (   161 PWs)   bands (ev):

     3.7130   8.9552  10.3493  11.7991  19.7060  22.4417

          k = 0.5625-0.0625 0.9375 (   161 PWs)   bands (ev):

     6.3058   7.3727   8.8469  10.2815  22.2927  24.4817

          k = 0.4375 0.0625 0.8125 (   159 PWs)   bands (ev):

     4.5318   7.6531  10.1967  11.4354  22.5101  23.6443

          k =-0.1875-1.0625 0.1875 (   164 PWs)   bands (ev):

     5.2526   7.7519   8.6817  14.4806  16.0074  21.8539

          k =-0.3125-0.9375 0.0625 (   163 PWs)   bands (ev):

     5.5181   8.0253   8.7901  11.4759  19.4509  22.2310

          k =-0.1875-0.8125 0.1875 (   164 PWs)   bands (ev):

     3.4383   8.7961  10.1975  14.7195  16.2826  22.0822

          k =-0.3125 0.3125 0.3125 (   153 PWs)   bands (ev):

    -0.4914   9.4120  19.0913  19.0913  22.0616  22.0617

          k =-0.4375 0.4375 0.1875 (   156 PWs)   bands (ev):

     0.6515   8.3306  14.8536  19.1009  21.0720  22.1020

          k = 0.4375-0.4375 1.0625 (   165 PWs)   bands (ev):

     2.6189   7.9222  10.6025  16.9041  18.8630  25.8848

          k = 0.3125-0.3125 0.9375 (   166 PWs)   bands (ev):

     5.3428   6.3432   8.9869  15.4459  17.2185  26.4173

          k =-0.3125 0.5625 0.3125 (   160 PWs)   bands (ev):

     1.4994   7.0058  16.6139  16.8983  18.6853  23.8232

          k = 0.5625-0.3125 1.1875 (   162 PWs)   bands (ev):

     3.1717   6.4512  12.9990  14.1912  21.3890  22.5784

          k = 0.4375-0.1875 1.0625 (   160 PWs)   bands (ev):

     5.6014   6.6077   9.2332  12.3684  20.7411  25.5092

          k =-0.3125-1.1875 0.3125 (   160 PWs)   bands (ev):

     4.5223   5.6638  11.2371  15.6878  17.4803  26.6054

          k =-0.4375 0.4375 0.4375 (   162 PWs)   bands (ev):

     2.0613   5.3868  19.3541  19.3541  20.3525  20.3526

          k = 0.4375-0.4375 1.3125 (   163 PWs)   bands (ev):

     3.4452   4.5717  15.3481  17.6366  19.5074  22.6016

     the Fermi energy is     8.1594 ev

!    total energy              =      -4.18937784 Ry
     estimated scf accuracy    <       0.00000036 Ry
     smearing contrib. (-TS)   =       0.00007207 Ry
     internal energy E=F+TS    =      -4.18944992 Ry

     The total energy is F=E-TS. E is the sum of the following terms:
     one-electron contribution =       2.91719229 Ry
     hartree contribution      =       0.00954548 Ry
     xc contribution           =      -1.63026599 Ry
     ewald contribution        =      -5.48592169 Ry

     convergence has been achieved in   3 iterations

     Writing all to output data dir ./tmp/Al.save/

     init_run     :      0.21s CPU      0.22s WALL (       1 calls)
     electrons    :      0.29s CPU      0.30s WALL (       1 calls)

     Called by init_run:
     wfcinit      :      0.04s CPU      0.05s WALL (       1 calls)
     potinit      :      0.02s CPU      0.02s WALL (       1 calls)
     hinit0       :      0.14s CPU      0.14s WALL (       1 calls)

     Called by electrons:
     c_bands      :      0.24s CPU      0.25s WALL (       4 calls)
     sum_band     :      0.04s CPU      0.04s WALL (       4 calls)
     v_of_rho     :      0.00s CPU      0.00s WALL (       4 calls)
     mix_rho      :      0.00s CPU      0.00s WALL (       4 calls)

     Called by c_bands:
     init_us_2    :      0.01s CPU      0.01s WALL (     540 calls)
     init_us_2:cp :      0.01s CPU      0.01s WALL (     540 calls)
     cegterg      :      0.23s CPU      0.24s WALL (     240 calls)

     Called by *egterg:
     cdiaghg      :      0.03s CPU      0.03s WALL (     644 calls)
     h_psi        :      0.18s CPU      0.19s WALL (     764 calls)
     g_psi        :      0.00s CPU      0.00s WALL (     464 calls)

     Called by h_psi:
     h_psi:calbec :      0.01s CPU      0.01s WALL (     764 calls)
     vloc_psi     :      0.16s CPU      0.17s WALL (     764 calls)
     add_vuspsi   :      0.01s CPU      0.01s WALL (     764 calls)

     General routines
     calbec       :      0.01s CPU      0.01s WALL (     764 calls)
     fft          :      0.14s CPU      0.14s WALL (      18 calls)
     ffts         :      0.02s CPU      0.02s WALL (       8 calls)
     fftw         :      0.12s CPU      0.12s WALL (    9284 calls)
     interpolate  :      0.02s CPU      0.02s WALL (       4 calls)

     Parallel routines

     PWSCF        :      0.52s CPU      0.54s WALL


   This run was terminated on:  16:38:54   2Jun2023            

=------------------------------------------------------------------------------=
   JOB DONE.
=------------------------------------------------------------------------------=
