### Running on host: ip-172-31-10-78

     Program PWSCF v.7.2 starts on  2Jun2023 at 16:38:52 

     This program is part of the open-source Quantum ESPRESSO suite
     for quantum simulation of materials; please cite
         "P. Giannozzi et al., J. Phys.:Condens. Matter 21 395502 (2009);
         "P. Giannozzi et al., J. Phys.:Condens. Matter 29 465901 (2017);
         "P. Giannozzi et al., J. Chem. Phys. 152 154105 (2020);
          URL http://www.quantum-espresso.org", 
     in publications or presentations arising from this work. More details at
     http://www.quantum-espresso.org/quote

     Parallel version (MPI), running on     1 processors

     MPI processes distributed on     1 nodes
     377 MiB available memory on the printing compute node when the environment starts

     Reading input from eos.Al.d/eos.Al.8.in

     Current dimensions of program PWSCF are:
     Max number of different atomic species (ntypx) = 10
     Max number of k-points (npk) =  40000
     Max angular momentum in pseudopotentials (lmaxx) =  4
     Message from routine setup:
     no reason to have ecutrho>4*ecutwfc

     Subspace diagonalization in iterative solution of the eigenvalue problem:
     a serial algorithm will be used


     G-vector sticks info
     --------------------
     sticks:   dense  smooth     PW     G-vecs:    dense   smooth      PW
     Sum         313     151     61                 3527     1243     331

     Using Slab Decomposition



     bravais-lattice index     =            2
     lattice parameter (alat)  =       7.4790  a.u.
     unit-cell volume          =     104.5860 (a.u.)^3
     number of atoms/cell      =            1
     number of atomic types    =            1
     number of electrons       =         3.00
     number of Kohn-Sham states=            6
     kinetic-energy cutoff     =      20.0000  Ry
     charge density cutoff     =     160.0000  Ry
     scf convergence threshold =      1.0E-06
     mixing beta               =       0.7000
     number of iterations used =            8  plain     mixing
     Exchange-correlation=  SLA  PZ   NOGX NOGC
                           (   1   1   0   0   0   0   0)

     celldm(1)=   7.479018  celldm(2)=   0.000000  celldm(3)=   0.000000
     celldm(4)=   0.000000  celldm(5)=   0.000000  celldm(6)=   0.000000

     crystal axes: (cart. coord. in units of alat)
               a(1) = (  -0.500000   0.000000   0.500000 )  
               a(2) = (   0.000000   0.500000   0.500000 )  
               a(3) = (  -0.500000   0.500000   0.000000 )  

     reciprocal axes: (cart. coord. in units 2 pi/alat)
               b(1) = ( -1.000000 -1.000000  1.000000 )  
               b(2) = (  1.000000  1.000000  1.000000 )  
               b(3) = ( -1.000000  1.000000 -1.000000 )  


     PseudoPot. # 1 for Al read from file:
     ./Al.pz-vbc.UPF
     MD5 check sum: c34c8b369e81ee50c191f4345b5f621b
     Pseudo is Norm-conserving, Zval =  3.0
     Generated by new atomic code, or converted to UPF format
     Using radial grid of  171 points,  2 beta functions with: 
                l(1) =   0
                l(2) =   1

     atomic species   valence    mass     pseudopotential
        Al             3.00    26.98000     Al( 1.00)

     48 Sym. Ops., with inversion, found



   Cartesian axes

     site n.     atom                  positions (alat units)
         1           Al  tau(   1) = (   0.0000000   0.0000000   0.0000000  )

     number of k points=    60  Marzari-Vanderbilt smearing, width (Ry)=  0.0200
                       cart. coord. in units 2pi/alat
        k(    1) = (  -0.0625000   0.0625000   0.0625000), wk =   0.0078125
        k(    2) = (  -0.1875000   0.1875000  -0.0625000), wk =   0.0234375
        k(    3) = (  -0.3125000   0.3125000  -0.1875000), wk =   0.0234375
        k(    4) = (  -0.4375000   0.4375000  -0.3125000), wk =   0.0234375
        k(    5) = (   0.4375000  -0.4375000   0.5625000), wk =   0.0234375
        k(    6) = (   0.3125000  -0.3125000   0.4375000), wk =   0.0234375
        k(    7) = (   0.1875000  -0.1875000   0.3125000), wk =   0.0234375
        k(    8) = (   0.0625000  -0.0625000   0.1875000), wk =   0.0234375
        k(    9) = (  -0.0625000   0.3125000   0.0625000), wk =   0.0234375
        k(   10) = (  -0.1875000   0.4375000  -0.0625000), wk =   0.0468750
        k(   11) = (  -0.3125000   0.5625000  -0.1875000), wk =   0.0468750
        k(   12) = (   0.5625000  -0.3125000   0.6875000), wk =   0.0468750
        k(   13) = (   0.4375000  -0.1875000   0.5625000), wk =   0.0468750
        k(   14) = (   0.3125000  -0.0625000   0.4375000), wk =   0.0468750
        k(   15) = (   0.1875000   0.0625000   0.3125000), wk =   0.0468750
        k(   16) = (  -0.0625000   0.5625000   0.0625000), wk =   0.0234375
        k(   17) = (  -0.1875000   0.6875000  -0.0625000), wk =   0.0468750
        k(   18) = (   0.6875000  -0.1875000   0.8125000), wk =   0.0468750
        k(   19) = (   0.5625000  -0.0625000   0.6875000), wk =   0.0468750
        k(   20) = (   0.4375000   0.0625000   0.5625000), wk =   0.0468750
        k(   21) = (   0.3125000   0.1875000   0.4375000), wk =   0.0468750
        k(   22) = (  -0.0625000   0.8125000   0.0625000), wk =   0.0234375
        k(   23) = (   0.8125000  -0.0625000   0.9375000), wk =   0.0468750
        k(   24) = (   0.6875000   0.0625000   0.8125000), wk =   0.0468750
        k(   25) = (   0.5625000   0.1875000   0.6875000), wk =   0.0468750
        k(   26) = (   0.4375000   0.3125000   0.5625000), wk =   0.0468750
        k(   27) = (  -0.0625000  -0.9375000   0.0625000), wk =   0.0234375
        k(   28) = (  -0.1875000  -0.8125000  -0.0625000), wk =   0.0468750
        k(   29) = (  -0.3125000  -0.6875000  -0.1875000), wk =   0.0468750
        k(   30) = (  -0.0625000  -0.6875000   0.0625000), wk =   0.0234375
        k(   31) = (  -0.1875000  -0.5625000  -0.0625000), wk =   0.0468750
        k(   32) = (  -0.0625000  -0.4375000   0.0625000), wk =   0.0234375
        k(   33) = (  -0.1875000   0.1875000   0.1875000), wk =   0.0078125
        k(   34) = (  -0.3125000   0.3125000   0.0625000), wk =   0.0234375
        k(   35) = (  -0.4375000   0.4375000  -0.0625000), wk =   0.0234375
        k(   36) = (   0.4375000  -0.4375000   0.8125000), wk =   0.0234375
        k(   37) = (   0.3125000  -0.3125000   0.6875000), wk =   0.0234375
        k(   38) = (   0.1875000  -0.1875000   0.5625000), wk =   0.0234375
        k(   39) = (  -0.1875000   0.4375000   0.1875000), wk =   0.0234375
        k(   40) = (  -0.3125000   0.5625000   0.0625000), wk =   0.0468750
        k(   41) = (   0.5625000  -0.3125000   0.9375000), wk =   0.0468750
        k(   42) = (   0.4375000  -0.1875000   0.8125000), wk =   0.0468750
        k(   43) = (   0.3125000  -0.0625000   0.6875000), wk =   0.0468750
        k(   44) = (  -0.1875000   0.6875000   0.1875000), wk =   0.0234375
        k(   45) = (   0.6875000  -0.1875000   1.0625000), wk =   0.0468750
        k(   46) = (   0.5625000  -0.0625000   0.9375000), wk =   0.0468750
        k(   47) = (   0.4375000   0.0625000   0.8125000), wk =   0.0468750
        k(   48) = (  -0.1875000  -1.0625000   0.1875000), wk =   0.0234375
        k(   49) = (  -0.3125000  -0.9375000   0.0625000), wk =   0.0468750
        k(   50) = (  -0.1875000  -0.8125000   0.1875000), wk =   0.0234375
        k(   51) = (  -0.3125000   0.3125000   0.3125000), wk =   0.0078125
        k(   52) = (  -0.4375000   0.4375000   0.1875000), wk =   0.0234375
        k(   53) = (   0.4375000  -0.4375000   1.0625000), wk =   0.0234375
        k(   54) = (   0.3125000  -0.3125000   0.9375000), wk =   0.0234375
        k(   55) = (  -0.3125000   0.5625000   0.3125000), wk =   0.0234375
        k(   56) = (   0.5625000  -0.3125000   1.1875000), wk =   0.0468750
        k(   57) = (   0.4375000  -0.1875000   1.0625000), wk =   0.0468750
        k(   58) = (  -0.3125000  -1.1875000   0.3125000), wk =   0.0234375
        k(   59) = (  -0.4375000   0.4375000   0.4375000), wk =   0.0078125
        k(   60) = (   0.4375000  -0.4375000   1.3125000), wk =   0.0234375

     Dense  grid:     3527 G-vectors     FFT dimensions: (  24,  24,  24)

     Smooth grid:     1243 G-vectors     FFT dimensions: (  15,  15,  15)

     Estimated max dynamical RAM per process >       3.44 MB

     Initial potential from superposition of free atoms

     starting charge       2.9979, renormalised to       3.0000

     negative rho (up, down):  3.093E-05 0.000E+00
     Starting wfcs are    9 randomized atomic wfcs

     total cpu time spent up to now is        0.2 secs

     Self-consistent Calculation

     iteration #  1     ecut=    20.00 Ry     beta= 0.70
     Davidson diagonalization with overlap
     ethr =  1.00E-02,  avg # of iterations =  2.9

     Threshold (ethr) on eigenvalues was too large:
     Diagonalizing with lowered threshold

     Davidson diagonalization with overlap
     ethr =  1.95E-04,  avg # of iterations =  2.0

     negative rho (up, down):  8.636E-06 0.000E+00

     total cpu time spent up to now is        0.4 secs

     total energy              =      -4.18943116 Ry
     estimated scf accuracy    <       0.00583938 Ry

     iteration #  2     ecut=    20.00 Ry     beta= 0.70
     Davidson diagonalization with overlap
     ethr =  1.95E-04,  avg # of iterations =  1.0

     negative rho (up, down):  5.482E-06 0.000E+00

     total cpu time spent up to now is        0.5 secs

     total energy              =      -4.18947241 Ry
     estimated scf accuracy    <       0.00044885 Ry

     iteration #  3     ecut=    20.00 Ry     beta= 0.70
     Davidson diagonalization with overlap
     ethr =  1.50E-05,  avg # of iterations =  1.8

     total cpu time spent up to now is        0.5 secs

     End of self-consistent calculation

          k =-0.0625 0.0625 0.0625 (   169 PWs)   bands (ev):

    -3.0520  19.4363  20.9034  20.9035  23.3036  23.3037

          k =-0.1875 0.1875-0.0625 (   158 PWs)   bands (ev):

    -2.4567  16.0142  18.2736  21.4439  23.5289  23.9459

          k =-0.3125 0.3125-0.1875 (   155 PWs)   bands (ev):

    -0.9846  11.1820  17.5235  20.8502  21.9093  23.4399

          k =-0.4375 0.4375-0.3125 (   154 PWs)   bands (ev):

     1.3255   6.9057  17.5355  19.9078  20.9186  21.5022

          k = 0.4375-0.4375 0.5625 (   160 PWs)   bands (ev):

     3.2952   4.4418  18.2948  18.6698  20.2214  21.6697

          k = 0.3125-0.3125 0.4375 (   153 PWs)   bands (ev):

     0.4657   8.2596  18.1641  19.6278  19.8554  23.1512

          k = 0.1875-0.1875 0.3125 (   158 PWs)   bands (ev):

    -1.5708  12.7504  18.3860  19.8345  22.0342  25.2445

          k = 0.0625-0.0625 0.1875 (   164 PWs)   bands (ev):

    -2.7539  17.7466  19.3235  20.4065  22.6411  24.6361

          k =-0.0625 0.3125 0.0625 (   160 PWs)   bands (ev):

    -2.1604  16.2085  17.8812  19.0383  21.6016  21.9390

          k =-0.1875 0.4375-0.0625 (   157 PWs)   bands (ev):

    -0.9843  13.1353  15.6348  18.7316  19.7008  22.4938

          k =-0.3125 0.5625-0.1875 (   154 PWs)   bands (ev):

     1.0396   8.7740  15.2780  16.4640  19.7685  24.5905

          k = 0.5625-0.3125 0.6875 (   162 PWs)   bands (ev):

     3.8461   4.9971  14.7951  15.9043  20.3570  23.1823

          k = 0.4375-0.1875 0.5625 (   159 PWs)   bands (ev):

     1.8938   7.4277  14.0776  17.1400  21.6165  22.4363

          k = 0.3125-0.0625 0.4375 (   156 PWs)   bands (ev):

    -0.4017  11.5563  14.2172  19.1585  22.1361  23.5845

          k = 0.1875 0.0625 0.3125 (   160 PWs)   bands (ev):

    -1.8651  14.4544  16.8727  20.8413  21.8396  23.4623

          k =-0.0625 0.5625 0.0625 (   158 PWs)   bands (ev):

    -0.1114  13.8308  15.3422  15.7030  16.7259  19.9605

          k =-0.1875 0.6875-0.0625 (   156 PWs)   bands (ev):

     1.6089  11.2540  12.6816  13.9891  17.9117  20.9996

          k = 0.6875-0.1875 0.8125 (   159 PWs)   bands (ev):

     4.1201   7.4133  10.9073  14.1035  18.5397  24.7333

          k = 0.5625-0.0625 0.6875 (   160 PWs)   bands (ev):

     4.1312   7.2914  10.0019  15.1098  19.6685  26.3399

          k = 0.4375 0.0625 0.5625 (   157 PWs)   bands (ev):

     1.6099   9.1607  11.8858  16.8910  21.4650  24.0270

          k = 0.3125 0.1875 0.4375 (   155 PWs)   bands (ev):

    -0.1118   9.8502  16.3198  19.3886  20.5955  23.7167

          k =-0.0625 0.8125 0.0625 (   160 PWs)   bands (ev):

     3.0106   9.7787  12.5191  14.4999  15.3698  18.7713

          k = 0.8125-0.0625 0.9375 (   161 PWs)   bands (ev):

     5.1283   7.7170  10.5015  13.1650  17.1223  20.2990

          k = 0.6875 0.0625 0.8125 (   159 PWs)   bands (ev):

     5.9221   7.1076   8.6642  13.8396  18.2820  24.5383

          k = 0.5625 0.1875 0.6875 (   160 PWs)   bands (ev):

     4.3960   5.5360  12.2426  15.3690  19.9072  24.6606

          k = 0.4375 0.3125 0.5625 (   158 PWs)   bands (ev):

     2.4592   5.8116  16.5539  17.6346  20.8982  21.9954

          k =-0.0625-0.9375 0.0625 (   154 PWs)   bands (ev):

     4.8599   7.4493  12.2479  14.2617  15.0992  18.5204

          k =-0.1875-0.8125-0.0625 (   160 PWs)   bands (ev):

     3.2897   9.9922  10.8076  13.4301  17.3860  20.5364

          k =-0.3125-0.6875-0.1875 (   156 PWs)   bands (ev):

     2.4577   7.9608  13.4814  14.6597  19.0457  25.0313

          k =-0.0625-0.6875 0.0625 (   158 PWs)   bands (ev):

     1.3243  12.4089  13.0800  14.9805  15.9106  19.2608

          k =-0.1875-0.5625-0.0625 (   155 PWs)   bands (ev):

     0.1777  12.0700  14.5731  15.7225  18.6911  21.6653

          k =-0.0625-0.4375 0.0625 (   159 PWs)   bands (ev):

    -1.2769  14.8978  16.6704  17.7295  18.4983  20.8266

          k =-0.1875 0.1875 0.1875 (   159 PWs)   bands (ev):

    -2.1605  14.3092  19.8389  19.8389  23.2557  24.5847

          k =-0.3125 0.3125 0.0625 (   159 PWs)   bands (ev):

    -1.2772  12.8815  15.4725  21.5620  22.5969  23.6414

          k =-0.4375 0.4375-0.0625 (   155 PWs)   bands (ev):

     0.4657  10.2281  12.9440  19.1605  21.2456  24.1627

          k = 0.4375-0.4375 0.8125 (   159 PWs)   bands (ev):

     3.0206   6.3417  13.0471  17.4353  19.3975  24.4646

          k = 0.3125-0.3125 0.6875 (   158 PWs)   bands (ev):

     3.0189   6.3552  14.0629  16.4487  18.2808  25.4539

          k = 0.1875-0.1875 0.5625 (   154 PWs)   bands (ev):

     0.4657  10.3583  15.8631  16.1950  17.9062  23.5351

          k =-0.1875 0.4375 0.1875 (   157 PWs)   bands (ev):

    -0.6927  11.4276  17.1674  18.7007  19.0996  24.3283

          k =-0.3125 0.5625 0.0625 (   153 PWs)   bands (ev):

     0.7531  10.4904  13.1671  16.2066  21.2513  23.6756

          k = 0.5625-0.3125 0.9375 (   158 PWs)   bands (ev):

     3.0192   8.3577  11.0589  14.1558  22.5467  23.4346

          k = 0.4375-0.1875 0.8125 (   160 PWs)   bands (ev):

     4.9310   6.0817  11.6214  12.9452  21.2940  24.3169

          k = 0.3125-0.0625 0.6875 (   156 PWs)   bands (ev):

     2.1755   9.6851  12.2668  13.4760  20.5108  23.2055

          k =-0.1875 0.6875 0.1875 (   156 PWs)   bands (ev):

     1.8926   9.5460  13.0114  15.4680  17.1022  22.8876

          k = 0.6875-0.1875 1.0625 (   158 PWs)   bands (ev):

     3.8448   9.1311  10.5416  12.0599  20.0012  22.8065

          k = 0.5625-0.0625 0.9375 (   159 PWs)   bands (ev):

     6.4564   7.5342   9.0226  10.5368  22.6188  24.8611

          k = 0.4375 0.0625 0.8125 (   159 PWs)   bands (ev):

     4.6703   7.8198  10.3869  11.6922  22.8412  23.9962

          k =-0.1875-1.0625 0.1875 (   164 PWs)   bands (ev):

     5.3957   7.9164   8.8832  14.7442  16.2730  22.2062

          k =-0.3125-0.9375 0.0625 (   159 PWs)   bands (ev):

     5.6640   8.1927   8.9806  11.7239  19.7435  22.5938

          k =-0.1875-0.8125 0.1875 (   158 PWs)   bands (ev):

     3.5676   8.9722  10.4085  14.9857  16.5521  22.4372

          k =-0.3125 0.3125 0.3125 (   153 PWs)   bands (ev):

    -0.4020   9.6028  19.3951  19.3952  22.3913  22.3915

          k =-0.4375 0.4375 0.1875 (   154 PWs)   bands (ev):

     0.7531   8.5102  15.1101  19.4097  21.3943  22.4261

          k = 0.4375-0.4375 1.0625 (   160 PWs)   bands (ev):

     2.7404   8.0926  10.8213  17.1895  19.1650  26.2493

          k = 0.3125-0.3125 0.9375 (   164 PWs)   bands (ev):

     5.4854   6.5021   9.1897  15.7177  17.5021  26.8075

          k =-0.3125 0.5625 0.3125 (   156 PWs)   bands (ev):

     1.6101   7.1735  16.8786  17.1821  18.9902  24.1723

          k = 0.5625-0.3125 1.1875 (   159 PWs)   bands (ev):

     3.2984   6.6128  13.2223  14.4615  21.7192  22.9121

          k = 0.4375-0.1875 1.0625 (   157 PWs)   bands (ev):

     5.7465   6.7681   9.4329  12.6163  21.0605  25.8760

          k =-0.3125-1.1875 0.3125 (   155 PWs)   bands (ev):

     4.6585   5.8214  11.4545  15.9621  17.7674  26.9193

          k =-0.4375 0.4375 0.4375 (   162 PWs)   bands (ev):

     2.1771   5.5392  19.6630  19.6630  20.6627  20.6627

          k = 0.4375-0.4375 1.3125 (   162 PWs)   bands (ev):

     3.5718   4.7190  15.6060  17.9274  19.8169  22.9359

     the Fermi energy is     8.3326 ev

!    total energy              =      -4.18947854 Ry
     estimated scf accuracy    <       0.00000036 Ry
     smearing contrib. (-TS)   =       0.00008292 Ry
     internal energy E=F+TS    =      -4.18956147 Ry

     The total energy is F=E-TS. E is the sum of the following terms:
     one-electron contribution =       2.95670238 Ry
     hartree contribution      =       0.00986240 Ry
     xc contribution           =      -1.63885642 Ry
     ewald contribution        =      -5.51726984 Ry

     convergence has been achieved in   3 iterations

     Writing all to output data dir ./tmp/Al.save/

     init_run     :      0.22s CPU      0.22s WALL (       1 calls)
     electrons    :      0.29s CPU      0.30s WALL (       1 calls)

     Called by init_run:
     wfcinit      :      0.05s CPU      0.05s WALL (       1 calls)
     potinit      :      0.02s CPU      0.02s WALL (       1 calls)
     hinit0       :      0.14s CPU      0.14s WALL (       1 calls)

     Called by electrons:
     c_bands      :      0.24s CPU      0.25s WALL (       4 calls)
     sum_band     :      0.04s CPU      0.04s WALL (       4 calls)
     v_of_rho     :      0.00s CPU      0.00s WALL (       4 calls)
     mix_rho      :      0.00s CPU      0.00s WALL (       4 calls)

     Called by c_bands:
     init_us_2    :      0.01s CPU      0.01s WALL (     540 calls)
     init_us_2:cp :      0.01s CPU      0.01s WALL (     540 calls)
     cegterg      :      0.23s CPU      0.24s WALL (     240 calls)

     Called by *egterg:
     cdiaghg      :      0.03s CPU      0.03s WALL (     641 calls)
     h_psi        :      0.18s CPU      0.20s WALL (     761 calls)
     g_psi        :      0.00s CPU      0.00s WALL (     461 calls)

     Called by h_psi:
     h_psi:calbec :      0.01s CPU      0.01s WALL (     761 calls)
     vloc_psi     :      0.17s CPU      0.18s WALL (     761 calls)
     add_vuspsi   :      0.01s CPU      0.01s WALL (     761 calls)

     General routines
     calbec       :      0.01s CPU      0.01s WALL (     761 calls)
     fft          :      0.14s CPU      0.14s WALL (      18 calls)
     ffts         :      0.02s CPU      0.02s WALL (       8 calls)
     fftw         :      0.13s CPU      0.13s WALL (    9290 calls)
     interpolate  :      0.02s CPU      0.02s WALL (       4 calls)

     Parallel routines

     PWSCF        :      0.52s CPU      0.54s WALL


   This run was terminated on:  16:38:53   2Jun2023            

=------------------------------------------------------------------------------=
   JOB DONE.
=------------------------------------------------------------------------------=
