### Running on host: ip-172-31-10-78

     Program PWSCF v.7.2 starts on  2Jun2023 at 16:38:57 

     This program is part of the open-source Quantum ESPRESSO suite
     for quantum simulation of materials; please cite
         "P. Giannozzi et al., J. Phys.:Condens. Matter 21 395502 (2009);
         "P. Giannozzi et al., J. Phys.:Condens. Matter 29 465901 (2017);
         "P. Giannozzi et al., J. Chem. Phys. 152 154105 (2020);
          URL http://www.quantum-espresso.org", 
     in publications or presentations arising from this work. More details at
     http://www.quantum-espresso.org/quote

     Parallel version (MPI), running on     1 processors

     MPI processes distributed on     1 nodes
     377 MiB available memory on the printing compute node when the environment starts

     Reading input from eos.Al.d/eos.Al.14.in

     Current dimensions of program PWSCF are:
     Max number of different atomic species (ntypx) = 10
     Max number of k-points (npk) =  40000
     Max angular momentum in pseudopotentials (lmaxx) =  4
     Message from routine setup:
     no reason to have ecutrho>4*ecutwfc

     Subspace diagonalization in iterative solution of the eigenvalue problem:
     a serial algorithm will be used


     G-vector sticks info
     --------------------
     sticks:   dense  smooth     PW     G-vecs:    dense   smooth      PW
     Sum         313     163     61                 3839     1411     339

     Using Slab Decomposition



     bravais-lattice index     =            2
     lattice parameter (alat)  =       7.7354  a.u.
     unit-cell volume          =     115.7165 (a.u.)^3
     number of atoms/cell      =            1
     number of atomic types    =            1
     number of electrons       =         3.00
     number of Kohn-Sham states=            6
     kinetic-energy cutoff     =      20.0000  Ry
     charge density cutoff     =     160.0000  Ry
     scf convergence threshold =      1.0E-06
     mixing beta               =       0.7000
     number of iterations used =            8  plain     mixing
     Exchange-correlation=  SLA  PZ   NOGX NOGC
                           (   1   1   0   0   0   0   0)

     celldm(1)=   7.735441  celldm(2)=   0.000000  celldm(3)=   0.000000
     celldm(4)=   0.000000  celldm(5)=   0.000000  celldm(6)=   0.000000

     crystal axes: (cart. coord. in units of alat)
               a(1) = (  -0.500000   0.000000   0.500000 )  
               a(2) = (   0.000000   0.500000   0.500000 )  
               a(3) = (  -0.500000   0.500000   0.000000 )  

     reciprocal axes: (cart. coord. in units 2 pi/alat)
               b(1) = ( -1.000000 -1.000000  1.000000 )  
               b(2) = (  1.000000  1.000000  1.000000 )  
               b(3) = ( -1.000000  1.000000 -1.000000 )  


     PseudoPot. # 1 for Al read from file:
     ./Al.pz-vbc.UPF
     MD5 check sum: c34c8b369e81ee50c191f4345b5f621b
     Pseudo is Norm-conserving, Zval =  3.0
     Generated by new atomic code, or converted to UPF format
     Using radial grid of  171 points,  2 beta functions with: 
                l(1) =   0
                l(2) =   1

     atomic species   valence    mass     pseudopotential
        Al             3.00    26.98000     Al( 1.00)

     48 Sym. Ops., with inversion, found



   Cartesian axes

     site n.     atom                  positions (alat units)
         1           Al  tau(   1) = (   0.0000000   0.0000000   0.0000000  )

     number of k points=    60  Marzari-Vanderbilt smearing, width (Ry)=  0.0200
                       cart. coord. in units 2pi/alat
        k(    1) = (  -0.0625000   0.0625000   0.0625000), wk =   0.0078125
        k(    2) = (  -0.1875000   0.1875000  -0.0625000), wk =   0.0234375
        k(    3) = (  -0.3125000   0.3125000  -0.1875000), wk =   0.0234375
        k(    4) = (  -0.4375000   0.4375000  -0.3125000), wk =   0.0234375
        k(    5) = (   0.4375000  -0.4375000   0.5625000), wk =   0.0234375
        k(    6) = (   0.3125000  -0.3125000   0.4375000), wk =   0.0234375
        k(    7) = (   0.1875000  -0.1875000   0.3125000), wk =   0.0234375
        k(    8) = (   0.0625000  -0.0625000   0.1875000), wk =   0.0234375
        k(    9) = (  -0.0625000   0.3125000   0.0625000), wk =   0.0234375
        k(   10) = (  -0.1875000   0.4375000  -0.0625000), wk =   0.0468750
        k(   11) = (  -0.3125000   0.5625000  -0.1875000), wk =   0.0468750
        k(   12) = (   0.5625000  -0.3125000   0.6875000), wk =   0.0468750
        k(   13) = (   0.4375000  -0.1875000   0.5625000), wk =   0.0468750
        k(   14) = (   0.3125000  -0.0625000   0.4375000), wk =   0.0468750
        k(   15) = (   0.1875000   0.0625000   0.3125000), wk =   0.0468750
        k(   16) = (  -0.0625000   0.5625000   0.0625000), wk =   0.0234375
        k(   17) = (  -0.1875000   0.6875000  -0.0625000), wk =   0.0468750
        k(   18) = (   0.6875000  -0.1875000   0.8125000), wk =   0.0468750
        k(   19) = (   0.5625000  -0.0625000   0.6875000), wk =   0.0468750
        k(   20) = (   0.4375000   0.0625000   0.5625000), wk =   0.0468750
        k(   21) = (   0.3125000   0.1875000   0.4375000), wk =   0.0468750
        k(   22) = (  -0.0625000   0.8125000   0.0625000), wk =   0.0234375
        k(   23) = (   0.8125000  -0.0625000   0.9375000), wk =   0.0468750
        k(   24) = (   0.6875000   0.0625000   0.8125000), wk =   0.0468750
        k(   25) = (   0.5625000   0.1875000   0.6875000), wk =   0.0468750
        k(   26) = (   0.4375000   0.3125000   0.5625000), wk =   0.0468750
        k(   27) = (  -0.0625000  -0.9375000   0.0625000), wk =   0.0234375
        k(   28) = (  -0.1875000  -0.8125000  -0.0625000), wk =   0.0468750
        k(   29) = (  -0.3125000  -0.6875000  -0.1875000), wk =   0.0468750
        k(   30) = (  -0.0625000  -0.6875000   0.0625000), wk =   0.0234375
        k(   31) = (  -0.1875000  -0.5625000  -0.0625000), wk =   0.0468750
        k(   32) = (  -0.0625000  -0.4375000   0.0625000), wk =   0.0234375
        k(   33) = (  -0.1875000   0.1875000   0.1875000), wk =   0.0078125
        k(   34) = (  -0.3125000   0.3125000   0.0625000), wk =   0.0234375
        k(   35) = (  -0.4375000   0.4375000  -0.0625000), wk =   0.0234375
        k(   36) = (   0.4375000  -0.4375000   0.8125000), wk =   0.0234375
        k(   37) = (   0.3125000  -0.3125000   0.6875000), wk =   0.0234375
        k(   38) = (   0.1875000  -0.1875000   0.5625000), wk =   0.0234375
        k(   39) = (  -0.1875000   0.4375000   0.1875000), wk =   0.0234375
        k(   40) = (  -0.3125000   0.5625000   0.0625000), wk =   0.0468750
        k(   41) = (   0.5625000  -0.3125000   0.9375000), wk =   0.0468750
        k(   42) = (   0.4375000  -0.1875000   0.8125000), wk =   0.0468750
        k(   43) = (   0.3125000  -0.0625000   0.6875000), wk =   0.0468750
        k(   44) = (  -0.1875000   0.6875000   0.1875000), wk =   0.0234375
        k(   45) = (   0.6875000  -0.1875000   1.0625000), wk =   0.0468750
        k(   46) = (   0.5625000  -0.0625000   0.9375000), wk =   0.0468750
        k(   47) = (   0.4375000   0.0625000   0.8125000), wk =   0.0468750
        k(   48) = (  -0.1875000  -1.0625000   0.1875000), wk =   0.0234375
        k(   49) = (  -0.3125000  -0.9375000   0.0625000), wk =   0.0468750
        k(   50) = (  -0.1875000  -0.8125000   0.1875000), wk =   0.0234375
        k(   51) = (  -0.3125000   0.3125000   0.3125000), wk =   0.0078125
        k(   52) = (  -0.4375000   0.4375000   0.1875000), wk =   0.0234375
        k(   53) = (   0.4375000  -0.4375000   1.0625000), wk =   0.0234375
        k(   54) = (   0.3125000  -0.3125000   0.9375000), wk =   0.0234375
        k(   55) = (  -0.3125000   0.5625000   0.3125000), wk =   0.0234375
        k(   56) = (   0.5625000  -0.3125000   1.1875000), wk =   0.0468750
        k(   57) = (   0.4375000  -0.1875000   1.0625000), wk =   0.0468750
        k(   58) = (  -0.3125000  -1.1875000   0.3125000), wk =   0.0234375
        k(   59) = (  -0.4375000   0.4375000   0.4375000), wk =   0.0078125
        k(   60) = (   0.4375000  -0.4375000   1.3125000), wk =   0.0234375

     Dense  grid:     3839 G-vectors     FFT dimensions: (  24,  24,  24)

     Smooth grid:     1411 G-vectors     FFT dimensions: (  15,  15,  15)

     Estimated max dynamical RAM per process >       3.67 MB

     Initial potential from superposition of free atoms

     starting charge       2.9979, renormalised to       3.0000

     negative rho (up, down):  5.101E-05 0.000E+00
     Starting wfcs are    9 randomized atomic wfcs

     total cpu time spent up to now is        0.2 secs

     Self-consistent Calculation

     iteration #  1     ecut=    20.00 Ry     beta= 0.70
     Davidson diagonalization with overlap
     ethr =  1.00E-02,  avg # of iterations =  2.7

     Threshold (ethr) on eigenvalues was too large:
     Diagonalizing with lowered threshold

     Davidson diagonalization with overlap
     ethr =  1.91E-04,  avg # of iterations =  2.0

     negative rho (up, down):  1.450E-05 0.000E+00

     total cpu time spent up to now is        0.4 secs

     total energy              =      -4.18655501 Ry
     estimated scf accuracy    <       0.00570188 Ry

     iteration #  2     ecut=    20.00 Ry     beta= 0.70
     Davidson diagonalization with overlap
     ethr =  1.90E-04,  avg # of iterations =  1.0

     negative rho (up, down):  6.654E-06 0.000E+00

     total cpu time spent up to now is        0.5 secs

     total energy              =      -4.18659250 Ry
     estimated scf accuracy    <       0.00041935 Ry

     iteration #  3     ecut=    20.00 Ry     beta= 0.70
     Davidson diagonalization with overlap
     ethr =  1.40E-05,  avg # of iterations =  1.9

     total cpu time spent up to now is        0.5 secs

     End of self-consistent calculation

          k =-0.0625 0.0625 0.0625 (   169 PWs)   bands (ev):

    -3.3914  17.7908  19.1752  19.1753  21.1441  21.1442

          k =-0.1875 0.1875-0.0625 (   172 PWs)   bands (ev):

    -2.8352  14.5705  16.5977  19.6440  21.3258  21.8691

          k =-0.3125 0.3125-0.1875 (   168 PWs)   bands (ev):

    -1.4576   9.9974  15.8917  18.9280  20.1352  21.5027

          k =-0.4375 0.4375-0.3125 (   169 PWs)   bands (ev):

     0.7101   5.9583  15.9031  18.0432  19.1991  19.6632

          k = 0.4375-0.4375 0.5625 (   172 PWs)   bands (ev):

     2.5733   3.6250  16.6187  16.9418  18.4555  19.8348

          k = 0.3125-0.3125 0.4375 (   175 PWs)   bands (ev):

    -0.0981   7.2357  16.4753  17.7973  18.1926  21.2147

          k = 0.1875-0.1875 0.3125 (   170 PWs)   bands (ev):

    -2.0064  11.4783  16.6956  18.0821  20.1345  22.2169

          k = 0.0625-0.0625 0.1875 (   171 PWs)   bands (ev):

    -3.1129  16.1988  17.6049  18.7470  20.4143  22.5362

          k =-0.0625 0.3125 0.0625 (   172 PWs)   bands (ev):

    -2.5581  14.7597  16.2235  17.4721  19.3440  20.2834

          k =-0.1875 0.4375-0.0625 (   171 PWs)   bands (ev):

    -1.4573  11.8710  14.1022  17.0225  18.0410  20.4478

          k =-0.3125 0.5625-0.1875 (   176 PWs)   bands (ev):

     0.4415   7.7279  13.8132  14.8662  18.0229  22.5245

          k = 0.5625-0.3125 0.6875 (   172 PWs)   bands (ev):

     3.0980   4.1458  13.3866  14.3095  18.5550  21.2438

          k = 0.4375-0.1875 0.5625 (   175 PWs)   bands (ev):

     1.2455   6.4560  12.6659  15.5079  19.7082  20.5879

          k = 0.3125-0.0625 0.4375 (   172 PWs)   bands (ev):

    -0.9115  10.3836  12.7573  17.4014  20.3126  21.5723

          k = 0.1875 0.0625 0.3125 (   170 PWs)   bands (ev):

    -2.2819  13.1085  15.2676  19.0648  19.8874  21.4955

          k =-0.0625 0.5625 0.0625 (   175 PWs)   bands (ev):

    -0.6390  12.5460  13.9108  14.1471  15.2610  17.9440

          k =-0.1875 0.6875-0.0625 (   176 PWs)   bands (ev):

     0.9777  10.1175  11.4221  12.4546  16.3502  18.9905

          k = 0.6875-0.1875 0.8125 (   179 PWs)   bands (ev):

     3.3500   6.4508   9.6918  12.6261  16.8673  22.5966

          k = 0.5625-0.0625 0.6875 (   178 PWs)   bands (ev):

     3.3594   6.3552   8.7958  13.5892  17.9100  24.2258

          k = 0.4375 0.0625 0.5625 (   173 PWs)   bands (ev):

     0.9785   8.1242  10.5657  15.2736  19.5871  22.0923

          k = 0.3125 0.1875 0.4375 (   172 PWs)   bands (ev):

    -0.6397   8.7415  14.7627  17.6134  18.8364  21.7331

          k =-0.0625 0.8125 0.0625 (   178 PWs)   bands (ev):

     2.3003   8.6617  11.3059  12.9973  13.9862  16.8116

          k = 0.8125-0.0625 0.9375 (   178 PWs)   bands (ev):

     4.3171   6.6997   9.3775  11.7177  15.6052  18.3240

          k = 0.6875 0.0625 0.8125 (   177 PWs)   bands (ev):

     5.0804   6.1881   7.5112  12.3827  16.6256  22.4162

          k = 0.5625 0.1875 0.6875 (   175 PWs)   bands (ev):

     3.6210   4.6548  10.9478  13.8297  18.1337  22.6323

          k = 0.4375 0.3125 0.5625 (   172 PWs)   bands (ev):

     1.7784   4.9253  15.0053  15.9695  19.0598  20.1444

          k =-0.0625-0.9375 0.0625 (   184 PWs)   bands (ev):

     4.0611   6.4380  11.0549  12.7678  13.7295  16.5749

          k =-0.1875-0.8125-0.0625 (   176 PWs)   bands (ev):

     2.5635   8.9029   9.6390  11.9618  15.8546  18.5490

          k =-0.3125-0.6875-0.1875 (   177 PWs)   bands (ev):

     1.7772   6.9631  12.1673  13.1164  17.3419  22.8758

          k =-0.0625-0.6875 0.0625 (   175 PWs)   bands (ev):

     0.7101  11.1698  11.8115  13.4570  14.4983  17.2744

          k =-0.1875-0.5625-0.0625 (   175 PWs)   bands (ev):

    -0.3679  10.8730  13.1429  14.1641  17.0844  19.6317

          k =-0.0625-0.4375 0.0625 (   168 PWs)   bands (ev):

    -1.7312  13.5367  15.0691  16.2628  16.8085  18.8065

          k =-0.1875 0.1875 0.1875 (   171 PWs)   bands (ev):

    -2.5583  12.9467  18.0767  18.0767  21.2642  22.4453

          k =-0.3125 0.3125 0.0625 (   170 PWs)   bands (ev):

    -1.7316  11.6305  13.9402  19.5325  20.8714  21.6714

          k =-0.4375 0.4375-0.0625 (   172 PWs)   bands (ev):

    -0.0975   9.1311  11.5562  17.3919  19.4067  22.2393

          k = 0.4375-0.4375 0.8125 (   176 PWs)   bands (ev):

     2.3087   5.4289  11.6943  15.7795  17.6612  22.4654

          k = 0.3125-0.3125 0.6875 (   178 PWs)   bands (ev):

     2.3072   5.4393  12.6699  14.8500  16.6099  23.3803

          k = 0.1875-0.1875 0.5625 (   173 PWs)   bands (ev):

    -0.0974   9.2287  14.3911  14.6136  16.2651  21.4603

          k =-0.1875 0.4375 0.1875 (   171 PWs)   bands (ev):

    -1.1841  10.2340  15.5386  17.1394  17.2987  22.2166

          k =-0.3125 0.5625 0.0625 (   175 PWs)   bands (ev):

     0.1725   9.3803  11.7822  14.6293  19.4765  21.5579

          k = 0.5625-0.3125 0.9375 (   176 PWs)   bands (ev):

     2.3073   7.3666   9.8064  12.6787  20.5776  21.5488

          k = 0.4375-0.1875 0.8125 (   176 PWs)   bands (ev):

     4.1307   5.1723  10.4262  11.4740  19.4437  22.3013

          k = 0.3125-0.0625 0.6875 (   177 PWs)   bands (ev):

     1.5114   8.6244  11.0170  11.9713  18.7813  21.1048

          k =-0.1875 0.6875 0.1875 (   179 PWs)   bands (ev):

     1.2446   8.4693  11.6848  13.9205  15.5258  20.8415

          k = 0.6875-0.1875 1.0625 (   177 PWs)   bands (ev):

     3.0885   8.1156   9.4151  10.5915  18.3033  20.7247

          k = 0.5625-0.0625 0.9375 (   177 PWs)   bands (ev):

     5.5882   6.6032   7.9865   9.1108  20.7393  22.6846

          k = 0.4375 0.0625 0.8125 (   177 PWs)   bands (ev):

     3.8717   6.8604   9.2667  10.2521  20.9290  21.9763

          k =-0.1875-1.0625 0.1875 (   178 PWs)   bands (ev):

     4.5724   6.9455   7.7425  13.2297  14.7587  20.1944

          k =-0.3125-0.9375 0.0625 (   177 PWs)   bands (ev):

     4.8272   7.2062   7.8929  10.3236  18.0612  20.5227

          k =-0.1875-0.8125 0.1875 (   178 PWs)   bands (ev):

     2.8261   7.9538   9.1943  13.4600  15.0171  20.4133

          k =-0.3125 0.3125 0.3125 (   171 PWs)   bands (ev):

    -0.9120   8.5032  17.6288  17.6288  20.5120  20.5121

          k =-0.4375 0.4375 0.1875 (   171 PWs)   bands (ev):

     0.1722   7.4772  13.6276  17.6202  19.5509  20.5812

          k = 0.4375-0.4375 1.0625 (   173 PWs)   bands (ev):

     2.0439   7.1148   9.5624  15.5470  17.4432  24.1525

          k = 0.3125-0.3125 0.9375 (   180 PWs)   bands (ev):

     4.6568   5.5961   8.0244  14.1552  15.8863  24.5674

          k =-0.3125 0.5625 0.3125 (   172 PWs)   bands (ev):

     0.9781   6.2122  15.3255  15.5471  17.2725  22.1747

          k = 0.5625-0.3125 1.1875 (   172 PWs)   bands (ev):

     2.5715   5.6860  11.9168  12.9314  19.8244  21.0018

          k = 0.4375-0.1875 1.0625 (   178 PWs)   bands (ev):

     4.9053   5.8502   8.2766  11.2109  19.2271  23.7607

          k =-0.3125-1.1875 0.3125 (   180 PWs)   bands (ev):

     3.8709   4.9235  10.1989  14.3866  16.1325  24.6567

          k =-0.4375 0.4375 0.4375 (   174 PWs)   bands (ev):

     1.5122   4.6681  17.8316  17.8317  18.9347  18.9348

          k = 0.4375-0.4375 1.3125 (   172 PWs)   bands (ev):

     2.8367   3.8849  14.1093  16.2457  18.0574  21.0239

     the Fermi energy is     7.3238 ev

!    total energy              =      -4.18659970 Ry
     estimated scf accuracy    <       0.00000041 Ry
     smearing contrib. (-TS)   =       0.00001489 Ry
     internal energy E=F+TS    =      -4.18661460 Ry

     The total energy is F=E-TS. E is the sum of the following terms:
     one-electron contribution =       2.72832650 Ry
     hartree contribution      =       0.00852173 Ry
     xc contribution           =      -1.58908590 Ry
     ewald contribution        =      -5.33437693 Ry

     convergence has been achieved in   3 iterations

     Writing all to output data dir ./tmp/Al.save/

     init_run     :      0.21s CPU      0.22s WALL (       1 calls)
     electrons    :      0.29s CPU      0.30s WALL (       1 calls)

     Called by init_run:
     wfcinit      :      0.05s CPU      0.05s WALL (       1 calls)
     potinit      :      0.02s CPU      0.02s WALL (       1 calls)
     hinit0       :      0.14s CPU      0.14s WALL (       1 calls)

     Called by electrons:
     c_bands      :      0.24s CPU      0.25s WALL (       4 calls)
     sum_band     :      0.04s CPU      0.04s WALL (       4 calls)
     v_of_rho     :      0.00s CPU      0.00s WALL (       4 calls)
     mix_rho      :      0.00s CPU      0.00s WALL (       4 calls)

     Called by c_bands:
     init_us_2    :      0.01s CPU      0.01s WALL (     540 calls)
     init_us_2:cp :      0.01s CPU      0.01s WALL (     540 calls)
     cegterg      :      0.23s CPU      0.24s WALL (     240 calls)

     Called by *egterg:
     cdiaghg      :      0.03s CPU      0.03s WALL (     640 calls)
     h_psi        :      0.18s CPU      0.19s WALL (     760 calls)
     g_psi        :      0.00s CPU      0.00s WALL (     460 calls)

     Called by h_psi:
     h_psi:calbec :      0.01s CPU      0.01s WALL (     760 calls)
     vloc_psi     :      0.16s CPU      0.17s WALL (     760 calls)
     add_vuspsi   :      0.01s CPU      0.01s WALL (     760 calls)

     General routines
     calbec       :      0.01s CPU      0.01s WALL (     760 calls)
     fft          :      0.14s CPU      0.14s WALL (      18 calls)
     ffts         :      0.02s CPU      0.02s WALL (       8 calls)
     fftw         :      0.12s CPU      0.12s WALL (    9248 calls)
     interpolate  :      0.02s CPU      0.02s WALL (       4 calls)

     Parallel routines

     PWSCF        :      0.52s CPU      0.55s WALL


   This run was terminated on:  16:38:58   2Jun2023            

=------------------------------------------------------------------------------=
   JOB DONE.
=------------------------------------------------------------------------------=
