### Running on host: ip-172-31-10-78

     Program PWSCF v.7.2 starts on  2Jun2023 at 16:38:58 

     This program is part of the open-source Quantum ESPRESSO suite
     for quantum simulation of materials; please cite
         "P. Giannozzi et al., J. Phys.:Condens. Matter 21 395502 (2009);
         "P. Giannozzi et al., J. Phys.:Condens. Matter 29 465901 (2017);
         "P. Giannozzi et al., J. Chem. Phys. 152 154105 (2020);
          URL http://www.quantum-espresso.org", 
     in publications or presentations arising from this work. More details at
     http://www.quantum-espresso.org/quote

     Parallel version (MPI), running on     1 processors

     MPI processes distributed on     1 nodes
     377 MiB available memory on the printing compute node when the environment starts

     Reading input from eos.Al.d/eos.Al.15.in

     Current dimensions of program PWSCF are:
     Max number of different atomic species (ntypx) = 10
     Max number of k-points (npk) =  40000
     Max angular momentum in pseudopotentials (lmaxx) =  4
     Message from routine setup:
     no reason to have ecutrho>4*ecutwfc

     Subspace diagonalization in iterative solution of the eigenvalue problem:
     a serial algorithm will be used


     G-vector sticks info
     --------------------
     sticks:   dense  smooth     PW     G-vecs:    dense   smooth      PW
     Sum         337     163     61                 4015     1411     339

     Using Slab Decomposition



     bravais-lattice index     =            2
     lattice parameter (alat)  =       7.7782  a.u.
     unit-cell volume          =     117.6451 (a.u.)^3
     number of atoms/cell      =            1
     number of atomic types    =            1
     number of electrons       =         3.00
     number of Kohn-Sham states=            6
     kinetic-energy cutoff     =      20.0000  Ry
     charge density cutoff     =     160.0000  Ry
     scf convergence threshold =      1.0E-06
     mixing beta               =       0.7000
     number of iterations used =            8  plain     mixing
     Exchange-correlation=  SLA  PZ   NOGX NOGC
                           (   1   1   0   0   0   0   0)

     celldm(1)=   7.778178  celldm(2)=   0.000000  celldm(3)=   0.000000
     celldm(4)=   0.000000  celldm(5)=   0.000000  celldm(6)=   0.000000

     crystal axes: (cart. coord. in units of alat)
               a(1) = (  -0.500000   0.000000   0.500000 )  
               a(2) = (   0.000000   0.500000   0.500000 )  
               a(3) = (  -0.500000   0.500000   0.000000 )  

     reciprocal axes: (cart. coord. in units 2 pi/alat)
               b(1) = ( -1.000000 -1.000000  1.000000 )  
               b(2) = (  1.000000  1.000000  1.000000 )  
               b(3) = ( -1.000000  1.000000 -1.000000 )  


     PseudoPot. # 1 for Al read from file:
     ./Al.pz-vbc.UPF
     MD5 check sum: c34c8b369e81ee50c191f4345b5f621b
     Pseudo is Norm-conserving, Zval =  3.0
     Generated by new atomic code, or converted to UPF format
     Using radial grid of  171 points,  2 beta functions with: 
                l(1) =   0
                l(2) =   1

     atomic species   valence    mass     pseudopotential
        Al             3.00    26.98000     Al( 1.00)

     48 Sym. Ops., with inversion, found



   Cartesian axes

     site n.     atom                  positions (alat units)
         1           Al  tau(   1) = (   0.0000000   0.0000000   0.0000000  )

     number of k points=    60  Marzari-Vanderbilt smearing, width (Ry)=  0.0200
                       cart. coord. in units 2pi/alat
        k(    1) = (  -0.0625000   0.0625000   0.0625000), wk =   0.0078125
        k(    2) = (  -0.1875000   0.1875000  -0.0625000), wk =   0.0234375
        k(    3) = (  -0.3125000   0.3125000  -0.1875000), wk =   0.0234375
        k(    4) = (  -0.4375000   0.4375000  -0.3125000), wk =   0.0234375
        k(    5) = (   0.4375000  -0.4375000   0.5625000), wk =   0.0234375
        k(    6) = (   0.3125000  -0.3125000   0.4375000), wk =   0.0234375
        k(    7) = (   0.1875000  -0.1875000   0.3125000), wk =   0.0234375
        k(    8) = (   0.0625000  -0.0625000   0.1875000), wk =   0.0234375
        k(    9) = (  -0.0625000   0.3125000   0.0625000), wk =   0.0234375
        k(   10) = (  -0.1875000   0.4375000  -0.0625000), wk =   0.0468750
        k(   11) = (  -0.3125000   0.5625000  -0.1875000), wk =   0.0468750
        k(   12) = (   0.5625000  -0.3125000   0.6875000), wk =   0.0468750
        k(   13) = (   0.4375000  -0.1875000   0.5625000), wk =   0.0468750
        k(   14) = (   0.3125000  -0.0625000   0.4375000), wk =   0.0468750
        k(   15) = (   0.1875000   0.0625000   0.3125000), wk =   0.0468750
        k(   16) = (  -0.0625000   0.5625000   0.0625000), wk =   0.0234375
        k(   17) = (  -0.1875000   0.6875000  -0.0625000), wk =   0.0468750
        k(   18) = (   0.6875000  -0.1875000   0.8125000), wk =   0.0468750
        k(   19) = (   0.5625000  -0.0625000   0.6875000), wk =   0.0468750
        k(   20) = (   0.4375000   0.0625000   0.5625000), wk =   0.0468750
        k(   21) = (   0.3125000   0.1875000   0.4375000), wk =   0.0468750
        k(   22) = (  -0.0625000   0.8125000   0.0625000), wk =   0.0234375
        k(   23) = (   0.8125000  -0.0625000   0.9375000), wk =   0.0468750
        k(   24) = (   0.6875000   0.0625000   0.8125000), wk =   0.0468750
        k(   25) = (   0.5625000   0.1875000   0.6875000), wk =   0.0468750
        k(   26) = (   0.4375000   0.3125000   0.5625000), wk =   0.0468750
        k(   27) = (  -0.0625000  -0.9375000   0.0625000), wk =   0.0234375
        k(   28) = (  -0.1875000  -0.8125000  -0.0625000), wk =   0.0468750
        k(   29) = (  -0.3125000  -0.6875000  -0.1875000), wk =   0.0468750
        k(   30) = (  -0.0625000  -0.6875000   0.0625000), wk =   0.0234375
        k(   31) = (  -0.1875000  -0.5625000  -0.0625000), wk =   0.0468750
        k(   32) = (  -0.0625000  -0.4375000   0.0625000), wk =   0.0234375
        k(   33) = (  -0.1875000   0.1875000   0.1875000), wk =   0.0078125
        k(   34) = (  -0.3125000   0.3125000   0.0625000), wk =   0.0234375
        k(   35) = (  -0.4375000   0.4375000  -0.0625000), wk =   0.0234375
        k(   36) = (   0.4375000  -0.4375000   0.8125000), wk =   0.0234375
        k(   37) = (   0.3125000  -0.3125000   0.6875000), wk =   0.0234375
        k(   38) = (   0.1875000  -0.1875000   0.5625000), wk =   0.0234375
        k(   39) = (  -0.1875000   0.4375000   0.1875000), wk =   0.0234375
        k(   40) = (  -0.3125000   0.5625000   0.0625000), wk =   0.0468750
        k(   41) = (   0.5625000  -0.3125000   0.9375000), wk =   0.0468750
        k(   42) = (   0.4375000  -0.1875000   0.8125000), wk =   0.0468750
        k(   43) = (   0.3125000  -0.0625000   0.6875000), wk =   0.0468750
        k(   44) = (  -0.1875000   0.6875000   0.1875000), wk =   0.0234375
        k(   45) = (   0.6875000  -0.1875000   1.0625000), wk =   0.0468750
        k(   46) = (   0.5625000  -0.0625000   0.9375000), wk =   0.0468750
        k(   47) = (   0.4375000   0.0625000   0.8125000), wk =   0.0468750
        k(   48) = (  -0.1875000  -1.0625000   0.1875000), wk =   0.0234375
        k(   49) = (  -0.3125000  -0.9375000   0.0625000), wk =   0.0468750
        k(   50) = (  -0.1875000  -0.8125000   0.1875000), wk =   0.0234375
        k(   51) = (  -0.3125000   0.3125000   0.3125000), wk =   0.0078125
        k(   52) = (  -0.4375000   0.4375000   0.1875000), wk =   0.0234375
        k(   53) = (   0.4375000  -0.4375000   1.0625000), wk =   0.0234375
        k(   54) = (   0.3125000  -0.3125000   0.9375000), wk =   0.0234375
        k(   55) = (  -0.3125000   0.5625000   0.3125000), wk =   0.0234375
        k(   56) = (   0.5625000  -0.3125000   1.1875000), wk =   0.0468750
        k(   57) = (   0.4375000  -0.1875000   1.0625000), wk =   0.0468750
        k(   58) = (  -0.3125000  -1.1875000   0.3125000), wk =   0.0234375
        k(   59) = (  -0.4375000   0.4375000   0.4375000), wk =   0.0078125
        k(   60) = (   0.4375000  -0.4375000   1.3125000), wk =   0.0234375

     Dense  grid:     4015 G-vectors     FFT dimensions: (  24,  24,  24)

     Smooth grid:     1411 G-vectors     FFT dimensions: (  15,  15,  15)

     Estimated max dynamical RAM per process >       3.76 MB

     Initial potential from superposition of free atoms

     starting charge       2.9979, renormalised to       3.0000

     negative rho (up, down):  2.738E-05 0.000E+00
     Starting wfcs are    9 randomized atomic wfcs

     total cpu time spent up to now is        0.2 secs

     Self-consistent Calculation

     iteration #  1     ecut=    20.00 Ry     beta= 0.70
     Davidson diagonalization with overlap
     ethr =  1.00E-02,  avg # of iterations =  2.6

     Threshold (ethr) on eigenvalues was too large:
     Diagonalizing with lowered threshold

     Davidson diagonalization with overlap
     ethr =  1.90E-04,  avg # of iterations =  2.0

     negative rho (up, down):  7.384E-06 0.000E+00

     total cpu time spent up to now is        0.4 secs

     total energy              =      -4.18561100 Ry
     estimated scf accuracy    <       0.00567232 Ry

     iteration #  2     ecut=    20.00 Ry     beta= 0.70
     Davidson diagonalization with overlap
     ethr =  1.89E-04,  avg # of iterations =  1.0

     negative rho (up, down):  4.326E-06 0.000E+00

     total cpu time spent up to now is        0.5 secs

     total energy              =      -4.18564837 Ry
     estimated scf accuracy    <       0.00041373 Ry

     iteration #  3     ecut=    20.00 Ry     beta= 0.70
     Davidson diagonalization with overlap
     ethr =  1.38E-05,  avg # of iterations =  2.0

     total cpu time spent up to now is        0.5 secs

     End of self-consistent calculation

          k =-0.0625 0.0625 0.0625 (   169 PWs)   bands (ev):

    -3.4433  17.5289  18.8979  18.8980  20.8114  20.8115

          k =-0.1875 0.1875-0.0625 (   172 PWs)   bands (ev):

    -2.8933  14.3421  16.3334  19.3523  20.9891  21.5430

          k =-0.3125 0.3125-0.1875 (   176 PWs)   bands (ev):

    -1.5310   9.8104  15.6328  18.6178  19.8641  21.1991

          k =-0.4375 0.4375-0.3125 (   176 PWs)   bands (ev):

     0.6141   5.8099  15.6435  17.7409  18.9387  19.3780

          k = 0.4375-0.4375 0.5625 (   174 PWs)   bands (ev):

     2.4582   3.5001  16.3485  16.6668  18.1868  19.5515

          k = 0.3125-0.3125 0.4375 (   177 PWs)   bands (ev):

    -0.1856   7.0753  16.2086  17.4833  17.9587  20.9141

          k = 0.1875-0.1875 0.3125 (   172 PWs)   bands (ev):

    -2.0737  11.2777  16.4290  17.8007  19.8404  21.8886

          k = 0.0625-0.0625 0.1875 (   171 PWs)   bands (ev):

    -3.1680  15.9532  17.3329  18.4834  20.0682  22.2071

          k =-0.0625 0.3125 0.0625 (   173 PWs)   bands (ev):

    -2.6193  14.5298  15.9625  17.2249  18.9921  20.0254

          k =-0.1875 0.4375-0.0625 (   173 PWs)   bands (ev):

    -1.5304  11.6713  13.8601  16.7480  17.7844  20.1333

          k =-0.3125 0.5625-0.1875 (   179 PWs)   bands (ev):

     0.3485   7.5638  13.5791  14.6172  17.7518  22.2006

          k = 0.5625-0.3125 0.6875 (   174 PWs)   bands (ev):

     2.9788   4.0151  13.1599  14.0635  18.2743  20.9412

          k = 0.4375-0.1875 0.5625 (   177 PWs)   bands (ev):

     1.1444   6.3041  12.4425  15.2522  19.4096  20.2997

          k = 0.3125-0.0625 0.4375 (   173 PWs)   bands (ev):

    -0.9904  10.1989  12.5276  17.1236  20.0263  21.2583

          k = 0.1875 0.0625 0.3125 (   172 PWs)   bands (ev):

    -2.3461  12.8954  15.0145  18.7748  19.5854  21.1950

          k =-0.0625 0.5625 0.0625 (   175 PWs)   bands (ev):

    -0.7207  12.3417  13.6791  13.9036  15.0360  17.6360

          k =-0.1875 0.6875-0.0625 (   180 PWs)   bands (ev):

     0.8794   9.9373  11.2189  12.2194  16.1060  18.6801

          k = 0.6875-0.1875 0.8125 (   181 PWs)   bands (ev):

     3.2291   6.2997   9.4998  12.3973  16.6066  22.2636

          k = 0.5625-0.0625 0.6875 (   180 PWs)   bands (ev):

     3.2380   6.2088   8.6063  13.3523  17.6359  23.8939

          k = 0.4375 0.0625 0.5625 (   179 PWs)   bands (ev):

     0.8799   7.9613  10.3576  15.0201  19.2932  21.7883

          k = 0.3125 0.1875 0.4375 (   175 PWs)   bands (ev):

    -0.7216   8.5674  14.5167  17.3279  18.5674  21.4228

          k =-0.0625 0.8125 0.0625 (   180 PWs)   bands (ev):

     2.1893   8.4835  11.1136  12.7626  13.7728  16.5104

          k = 0.8125-0.0625 0.9375 (   181 PWs)   bands (ev):

     4.1901   6.5371   9.2010  11.4941  15.3683  18.0186

          k = 0.6875 0.0625 0.8125 (   182 PWs)   bands (ev):

     4.9474   6.0419   7.3317  12.1567  16.3673  22.0846

          k = 0.5625 0.1875 0.6875 (   178 PWs)   bands (ev):

     3.4974   4.5192  10.7429  13.5900  17.8573  22.3151

          k = 0.4375 0.3125 0.5625 (   175 PWs)   bands (ev):

     1.6717   4.7874  14.7576  15.7087  18.7746  19.8575

          k =-0.0625-0.9375 0.0625 (   186 PWs)   bands (ev):

     3.9365   6.2773  10.8654  12.5350  13.5182  16.2757

          k =-0.1875-0.8125-0.0625 (   179 PWs)   bands (ev):

     2.4500   8.7268   9.4565  11.7352  15.6152  18.2422

          k =-0.3125-0.6875-0.1875 (   181 PWs)   bands (ev):

     1.6708   6.8065  11.9555  12.8795  17.0766  22.5401

          k =-0.0625-0.6875 0.0625 (   178 PWs)   bands (ev):

     0.6145  10.9699  11.6111  13.2188  14.2801  16.9696

          k =-0.1875-0.5625-0.0625 (   180 PWs)   bands (ev):

    -0.4526  10.6837  12.9136  13.9220  16.8335  19.3176

          k =-0.0625-0.4375 0.0625 (   173 PWs)   bands (ev):

    -1.8015  13.3202  14.8177  16.0283  16.5381  18.5022

          k =-0.1875 0.1875 0.1875 (   172 PWs)   bands (ev):

    -2.6194  12.7314  17.7971  17.7971  20.9506  22.1124

          k =-0.3125 0.3125 0.0625 (   173 PWs)   bands (ev):

    -1.8018  11.4330  13.6983  19.2088  20.6026  21.3629

          k =-0.4375 0.4375-0.0625 (   176 PWs)   bands (ev):

    -0.1850   8.9586  11.3379  17.1120  19.1205  21.9373

          k = 0.4375-0.4375 0.8125 (   176 PWs)   bands (ev):

     2.1970   5.2868  11.4809  15.5189  17.3924  22.1535

          k = 0.3125-0.3125 0.6875 (   178 PWs)   bands (ev):

     2.1956   5.2967  12.4485  14.5992  16.3524  23.0572

          k = 0.1875-0.1875 0.5625 (   178 PWs)   bands (ev):

    -0.1849   9.0508  14.1527  14.3651  16.0149  21.1377

          k =-0.1875 0.4375 0.1875 (   177 PWs)   bands (ev):

    -1.2603  10.0453  15.2820  16.8367  17.0728  21.8876

          k =-0.3125 0.5625 0.0625 (   178 PWs)   bands (ev):

     0.0823   9.2055  11.5633  14.3830  19.1966  21.2265

          k = 0.5625-0.3125 0.9375 (   178 PWs)   bands (ev):

     2.1958   7.2110   9.6080  12.4504  20.2689  21.2532

          k = 0.4375-0.1875 0.8125 (   180 PWs)   bands (ev):

     4.0031   5.0315  10.2330  11.2504  19.1536  21.9852

          k = 0.3125-0.0625 0.6875 (   180 PWs)   bands (ev):

     1.4077   8.4575  10.8142  11.7432  18.5095  20.7783

          k =-0.1875 0.6875 0.1875 (   181 PWs)   bands (ev):

     1.1437   8.2996  11.4741  13.6779  15.2827  20.5239

          k = 0.6875-0.1875 1.0625 (   181 PWs)   bands (ev):

     2.9699   7.9548   9.2330  10.3695  18.0369  20.4007

          k = 0.5625-0.0625 0.9375 (   181 PWs)   bands (ev):

     5.4510   6.4565   7.8169   8.8982  20.4437  22.3457

          k = 0.4375 0.0625 0.8125 (   182 PWs)   bands (ev):

     3.7459   6.7097   9.0838  10.0360  20.6268  21.6605

          k =-0.1875-1.0625 0.1875 (   180 PWs)   bands (ev):

     4.4432   6.7864   7.5690  12.9932  14.5240  19.8820

          k =-0.3125-0.9375 0.0625 (   181 PWs)   bands (ev):

     4.6960   7.0448   7.7248  10.1098  17.7972  20.2009

          k =-0.1875-0.8125 0.1875 (   180 PWs)   bands (ev):

     2.7101   7.7919   9.0040  13.2217  14.7795  20.0987

          k =-0.3125 0.3125 0.3125 (   177 PWs)   bands (ev):

    -0.9910   8.3303  17.3471  17.3471  20.2206  20.2207

          k =-0.4375 0.4375 0.1875 (   177 PWs)   bands (ev):

     0.0819   7.3150  13.3933  17.3349  19.2641  20.2949

          k = 0.4375-0.4375 1.0625 (   178 PWs)   bands (ev):

     1.9348   6.9610   9.3645  15.2886  17.1760  23.8230

          k = 0.3125-0.3125 0.9375 (   180 PWs)   bands (ev):

     4.5248   5.4557   7.8422  13.9105  15.6362  24.2172

          k =-0.3125 0.5625 0.3125 (   176 PWs)   bands (ev):

     0.8795   6.0616  15.0746  15.2898  17.0110  21.8632

          k = 0.5625-0.3125 1.1875 (   175 PWs)   bands (ev):

     2.4574   5.5414  11.7063  12.6971  19.5271  20.7035

          k = 0.4375-0.1875 1.0625 (   180 PWs)   bands (ev):

     4.7715   5.7074   8.0938  10.9952  18.9404  23.4284

          k =-0.3125-1.1875 0.3125 (   180 PWs)   bands (ev):

     3.7458   4.7849  10.0011  14.1399  15.8797  24.3050

          k =-0.4375 0.4375 0.4375 (   174 PWs)   bands (ev):

     1.4080   4.5328  17.5345  17.5346  18.6746  18.6747

          k = 0.4375-0.4375 1.3125 (   174 PWs)   bands (ev):

     2.7196   3.7571  13.8713  15.9798  17.7860  20.7268

     the Fermi energy is     7.1623 ev

!    total energy              =      -4.18565585 Ry
     estimated scf accuracy    <       0.00000042 Ry
     smearing contrib. (-TS)   =       0.00000704 Ry
     internal energy E=F+TS    =      -4.18566288 Ry

     The total energy is F=E-TS. E is the sum of the following terms:
     one-electron contribution =       2.69216657 Ry
     hartree contribution      =       0.00843830 Ry
     xc contribution           =      -1.58120061 Ry
     ewald contribution        =      -5.30506714 Ry

     convergence has been achieved in   3 iterations

     Writing all to output data dir ./tmp/Al.save/

     init_run     :      0.22s CPU      0.22s WALL (       1 calls)
     electrons    :      0.29s CPU      0.30s WALL (       1 calls)

     Called by init_run:
     wfcinit      :      0.05s CPU      0.05s WALL (       1 calls)
     potinit      :      0.02s CPU      0.02s WALL (       1 calls)
     hinit0       :      0.14s CPU      0.14s WALL (       1 calls)

     Called by electrons:
     c_bands      :      0.24s CPU      0.25s WALL (       4 calls)
     sum_band     :      0.04s CPU      0.04s WALL (       4 calls)
     v_of_rho     :      0.00s CPU      0.00s WALL (       4 calls)
     mix_rho      :      0.00s CPU      0.00s WALL (       4 calls)

     Called by c_bands:
     init_us_2    :      0.01s CPU      0.01s WALL (     540 calls)
     init_us_2:cp :      0.01s CPU      0.01s WALL (     540 calls)
     cegterg      :      0.23s CPU      0.24s WALL (     240 calls)

     Called by *egterg:
     cdiaghg      :      0.03s CPU      0.03s WALL (     641 calls)
     h_psi        :      0.18s CPU      0.19s WALL (     761 calls)
     g_psi        :      0.00s CPU      0.00s WALL (     461 calls)

     Called by h_psi:
     h_psi:calbec :      0.01s CPU      0.01s WALL (     761 calls)
     vloc_psi     :      0.16s CPU      0.17s WALL (     761 calls)
     add_vuspsi   :      0.01s CPU      0.01s WALL (     761 calls)

     General routines
     calbec       :      0.01s CPU      0.01s WALL (     761 calls)
     fft          :      0.14s CPU      0.14s WALL (      18 calls)
     ffts         :      0.02s CPU      0.02s WALL (       8 calls)
     fftw         :      0.12s CPU      0.13s WALL (    9248 calls)
     interpolate  :      0.02s CPU      0.02s WALL (       4 calls)

     Parallel routines

     PWSCF        :      0.53s CPU      0.55s WALL


   This run was terminated on:  16:38:59   2Jun2023            

=------------------------------------------------------------------------------=
   JOB DONE.
=------------------------------------------------------------------------------=
