### Running on host: ip-172-31-10-78

     Program PWSCF v.7.2 starts on  2Jun2023 at 16:38:48 

     This program is part of the open-source Quantum ESPRESSO suite
     for quantum simulation of materials; please cite
         "P. Giannozzi et al., J. Phys.:Condens. Matter 21 395502 (2009);
         "P. Giannozzi et al., J. Phys.:Condens. Matter 29 465901 (2017);
         "P. Giannozzi et al., J. Chem. Phys. 152 154105 (2020);
          URL http://www.quantum-espresso.org", 
     in publications or presentations arising from this work. More details at
     http://www.quantum-espresso.org/quote

     Parallel version (MPI), running on     1 processors

     MPI processes distributed on     1 nodes
     378 MiB available memory on the printing compute node when the environment starts

     Reading input from eos.Al.d/eos.Al.3.in

     Current dimensions of program PWSCF are:
     Max number of different atomic species (ntypx) = 10
     Max number of k-points (npk) =  40000
     Max angular momentum in pseudopotentials (lmaxx) =  4
     Message from routine setup:
     no reason to have ecutrho>4*ecutwfc

     Subspace diagonalization in iterative solution of the eigenvalue problem:
     a serial algorithm will be used


     G-vector sticks info
     --------------------
     sticks:   dense  smooth     PW     G-vecs:    dense   smooth      PW
     Sum         295     151     61                 3287     1139     307

     Using Slab Decomposition



     bravais-lattice index     =            2
     lattice parameter (alat)  =       7.2653  a.u.
     unit-cell volume          =      95.8752 (a.u.)^3
     number of atoms/cell      =            1
     number of atomic types    =            1
     number of electrons       =         3.00
     number of Kohn-Sham states=            6
     kinetic-energy cutoff     =      20.0000  Ry
     charge density cutoff     =     160.0000  Ry
     scf convergence threshold =      1.0E-06
     mixing beta               =       0.7000
     number of iterations used =            8  plain     mixing
     Exchange-correlation=  SLA  PZ   NOGX NOGC
                           (   1   1   0   0   0   0   0)

     celldm(1)=   7.265332  celldm(2)=   0.000000  celldm(3)=   0.000000
     celldm(4)=   0.000000  celldm(5)=   0.000000  celldm(6)=   0.000000

     crystal axes: (cart. coord. in units of alat)
               a(1) = (  -0.500000   0.000000   0.500000 )  
               a(2) = (   0.000000   0.500000   0.500000 )  
               a(3) = (  -0.500000   0.500000   0.000000 )  

     reciprocal axes: (cart. coord. in units 2 pi/alat)
               b(1) = ( -1.000000 -1.000000  1.000000 )  
               b(2) = (  1.000000  1.000000  1.000000 )  
               b(3) = ( -1.000000  1.000000 -1.000000 )  


     PseudoPot. # 1 for Al read from file:
     ./Al.pz-vbc.UPF
     MD5 check sum: c34c8b369e81ee50c191f4345b5f621b
     Pseudo is Norm-conserving, Zval =  3.0
     Generated by new atomic code, or converted to UPF format
     Using radial grid of  171 points,  2 beta functions with: 
                l(1) =   0
                l(2) =   1

     atomic species   valence    mass     pseudopotential
        Al             3.00    26.98000     Al( 1.00)

     48 Sym. Ops., with inversion, found



   Cartesian axes

     site n.     atom                  positions (alat units)
         1           Al  tau(   1) = (   0.0000000   0.0000000   0.0000000  )

     number of k points=    60  Marzari-Vanderbilt smearing, width (Ry)=  0.0200
                       cart. coord. in units 2pi/alat
        k(    1) = (  -0.0625000   0.0625000   0.0625000), wk =   0.0078125
        k(    2) = (  -0.1875000   0.1875000  -0.0625000), wk =   0.0234375
        k(    3) = (  -0.3125000   0.3125000  -0.1875000), wk =   0.0234375
        k(    4) = (  -0.4375000   0.4375000  -0.3125000), wk =   0.0234375
        k(    5) = (   0.4375000  -0.4375000   0.5625000), wk =   0.0234375
        k(    6) = (   0.3125000  -0.3125000   0.4375000), wk =   0.0234375
        k(    7) = (   0.1875000  -0.1875000   0.3125000), wk =   0.0234375
        k(    8) = (   0.0625000  -0.0625000   0.1875000), wk =   0.0234375
        k(    9) = (  -0.0625000   0.3125000   0.0625000), wk =   0.0234375
        k(   10) = (  -0.1875000   0.4375000  -0.0625000), wk =   0.0468750
        k(   11) = (  -0.3125000   0.5625000  -0.1875000), wk =   0.0468750
        k(   12) = (   0.5625000  -0.3125000   0.6875000), wk =   0.0468750
        k(   13) = (   0.4375000  -0.1875000   0.5625000), wk =   0.0468750
        k(   14) = (   0.3125000  -0.0625000   0.4375000), wk =   0.0468750
        k(   15) = (   0.1875000   0.0625000   0.3125000), wk =   0.0468750
        k(   16) = (  -0.0625000   0.5625000   0.0625000), wk =   0.0234375
        k(   17) = (  -0.1875000   0.6875000  -0.0625000), wk =   0.0468750
        k(   18) = (   0.6875000  -0.1875000   0.8125000), wk =   0.0468750
        k(   19) = (   0.5625000  -0.0625000   0.6875000), wk =   0.0468750
        k(   20) = (   0.4375000   0.0625000   0.5625000), wk =   0.0468750
        k(   21) = (   0.3125000   0.1875000   0.4375000), wk =   0.0468750
        k(   22) = (  -0.0625000   0.8125000   0.0625000), wk =   0.0234375
        k(   23) = (   0.8125000  -0.0625000   0.9375000), wk =   0.0468750
        k(   24) = (   0.6875000   0.0625000   0.8125000), wk =   0.0468750
        k(   25) = (   0.5625000   0.1875000   0.6875000), wk =   0.0468750
        k(   26) = (   0.4375000   0.3125000   0.5625000), wk =   0.0468750
        k(   27) = (  -0.0625000  -0.9375000   0.0625000), wk =   0.0234375
        k(   28) = (  -0.1875000  -0.8125000  -0.0625000), wk =   0.0468750
        k(   29) = (  -0.3125000  -0.6875000  -0.1875000), wk =   0.0468750
        k(   30) = (  -0.0625000  -0.6875000   0.0625000), wk =   0.0234375
        k(   31) = (  -0.1875000  -0.5625000  -0.0625000), wk =   0.0468750
        k(   32) = (  -0.0625000  -0.4375000   0.0625000), wk =   0.0234375
        k(   33) = (  -0.1875000   0.1875000   0.1875000), wk =   0.0078125
        k(   34) = (  -0.3125000   0.3125000   0.0625000), wk =   0.0234375
        k(   35) = (  -0.4375000   0.4375000  -0.0625000), wk =   0.0234375
        k(   36) = (   0.4375000  -0.4375000   0.8125000), wk =   0.0234375
        k(   37) = (   0.3125000  -0.3125000   0.6875000), wk =   0.0234375
        k(   38) = (   0.1875000  -0.1875000   0.5625000), wk =   0.0234375
        k(   39) = (  -0.1875000   0.4375000   0.1875000), wk =   0.0234375
        k(   40) = (  -0.3125000   0.5625000   0.0625000), wk =   0.0468750
        k(   41) = (   0.5625000  -0.3125000   0.9375000), wk =   0.0468750
        k(   42) = (   0.4375000  -0.1875000   0.8125000), wk =   0.0468750
        k(   43) = (   0.3125000  -0.0625000   0.6875000), wk =   0.0468750
        k(   44) = (  -0.1875000   0.6875000   0.1875000), wk =   0.0234375
        k(   45) = (   0.6875000  -0.1875000   1.0625000), wk =   0.0468750
        k(   46) = (   0.5625000  -0.0625000   0.9375000), wk =   0.0468750
        k(   47) = (   0.4375000   0.0625000   0.8125000), wk =   0.0468750
        k(   48) = (  -0.1875000  -1.0625000   0.1875000), wk =   0.0234375
        k(   49) = (  -0.3125000  -0.9375000   0.0625000), wk =   0.0468750
        k(   50) = (  -0.1875000  -0.8125000   0.1875000), wk =   0.0234375
        k(   51) = (  -0.3125000   0.3125000   0.3125000), wk =   0.0078125
        k(   52) = (  -0.4375000   0.4375000   0.1875000), wk =   0.0234375
        k(   53) = (   0.4375000  -0.4375000   1.0625000), wk =   0.0234375
        k(   54) = (   0.3125000  -0.3125000   0.9375000), wk =   0.0234375
        k(   55) = (  -0.3125000   0.5625000   0.3125000), wk =   0.0234375
        k(   56) = (   0.5625000  -0.3125000   1.1875000), wk =   0.0468750
        k(   57) = (   0.4375000  -0.1875000   1.0625000), wk =   0.0468750
        k(   58) = (  -0.3125000  -1.1875000   0.3125000), wk =   0.0234375
        k(   59) = (  -0.4375000   0.4375000   0.4375000), wk =   0.0078125
        k(   60) = (   0.4375000  -0.4375000   1.3125000), wk =   0.0234375

     Dense  grid:     3287 G-vectors     FFT dimensions: (  24,  24,  24)

     Smooth grid:     1139 G-vectors     FFT dimensions: (  15,  15,  15)

     Estimated max dynamical RAM per process >       3.27 MB

     Initial potential from superposition of free atoms

     starting charge       2.9979, renormalised to       3.0000
     Starting wfcs are    9 randomized atomic wfcs

     total cpu time spent up to now is        0.2 secs

     Self-consistent Calculation

     iteration #  1     ecut=    20.00 Ry     beta= 0.70
     Davidson diagonalization with overlap
     ethr =  1.00E-02,  avg # of iterations =  3.1

     Threshold (ethr) on eigenvalues was too large:
     Diagonalizing with lowered threshold

     Davidson diagonalization with overlap
     ethr =  1.99E-04,  avg # of iterations =  2.1

     total cpu time spent up to now is        0.4 secs

     total energy              =      -4.18707063 Ry
     estimated scf accuracy    <       0.00594794 Ry

     iteration #  2     ecut=    20.00 Ry     beta= 0.70
     Davidson diagonalization with overlap
     ethr =  1.98E-04,  avg # of iterations =  1.0

     negative rho (up, down):  6.485E-07 0.000E+00

     total cpu time spent up to now is        0.5 secs

     total energy              =      -4.18712285 Ry
     estimated scf accuracy    <       0.00047096 Ry

     iteration #  3     ecut=    20.00 Ry     beta= 0.70
     Davidson diagonalization with overlap
     ethr =  1.57E-05,  avg # of iterations =  1.7

     total cpu time spent up to now is        0.5 secs

     End of self-consistent calculation

          k =-0.0625 0.0625 0.0625 (   153 PWs)   bands (ev):

    -2.7280  20.9173  22.4488  22.4489  25.3252  25.3252

          k =-0.1875 0.1875-0.0625 (   152 PWs)   bands (ev):

    -2.0972  17.3200  19.7938  23.0358  25.6199  25.8412

          k =-0.3125 0.3125-0.1875 (   148 PWs)   bands (ev):

    -0.5396  12.2626  19.0031  22.5154  23.6179  25.2115

          k =-0.4375 0.4375-0.3125 (   147 PWs)   bands (ev):

     1.8965   7.7795  19.0024  21.5098  22.6052  23.2214

          k = 0.4375-0.4375 0.5625 (   147 PWs)   bands (ev):

     3.9487   5.2151  19.7646  20.2168  21.9139  23.3950

          k = 0.3125-0.3125 0.4375 (   148 PWs)   bands (ev):

     0.9909   9.1986  19.6926  20.9919  21.6921  24.9486

          k = 0.1875-0.1875 0.3125 (   149 PWs)   bands (ev):

    -1.1594  13.9081  19.9203  21.3883  23.8012  26.2005

          k = 0.0625-0.0625 0.1875 (   151 PWs)   bands (ev):

    -2.4120  19.1421  20.8815  21.9087  24.6852  26.5608

          k =-0.0625 0.3125 0.0625 (   148 PWs)   bands (ev):

    -1.7833  17.5146  19.3929  20.4686  23.3793  23.7751

          k =-0.1875 0.4375-0.0625 (   146 PWs)   bands (ev):

    -0.5394  14.2824  17.0271  20.2436  21.2505  24.4257

          k =-0.3125 0.5625-0.1875 (   145 PWs)   bands (ev):

     1.5956   9.7312  16.5812  17.9422  21.3919  26.4862

          k = 0.5625-0.3125 0.6875 (   143 PWs)   bands (ev):

     4.5230   5.7999  16.0433  17.3971  22.0272  24.9744

          k = 0.4375-0.1875 0.5625 (   145 PWs)   bands (ev):

     2.4946   8.3220  15.3535  18.6401  23.3741  24.1499

          k = 0.3125-0.0625 0.4375 (   145 PWs)   bands (ev):

     0.0758  12.6247  15.5456  20.7488  23.8037  25.4362

          k = 0.1875 0.0625 0.3125 (   147 PWs)   bands (ev):

    -1.4708  15.6752  18.3339  22.4054  23.6145  25.3552

          k =-0.0625 0.5625 0.0625 (   143 PWs)   bands (ev):

     0.3824  14.9860  16.5941  17.1330  18.1063  21.8771

          k =-0.1875 0.6875-0.0625 (   142 PWs)   bands (ev):

     2.1953  12.2829  13.7951  15.4336  19.3511  22.8856

          k = 0.6875-0.1875 0.8125 (   144 PWs)   bands (ev):

     4.8270   8.2945  12.0051  15.4846  20.0876  26.7090

          k = 0.5625-0.0625 0.6875 (   143 PWs)   bands (ev):

     4.8373   8.1547  11.1010  16.5210  21.2960  28.2713

          k = 0.4375 0.0625 0.5625 (   143 PWs)   bands (ev):

     2.1962  10.1093  13.0873  18.3794  23.1960  25.7969

          k = 0.3125 0.1875 0.4375 (   146 PWs)   bands (ev):

     0.3819  10.8630  17.7302  20.9510  22.2737  25.5411

          k =-0.0625 0.8125 0.0625 (   139 PWs)   bands (ev):

     3.6691  10.7804  13.6084  15.8857  16.6699  20.6239

          k = 0.8125-0.0625 0.9375 (   142 PWs)   bands (ev):

     5.8776   8.6245  11.5283  14.5216  18.5216  22.1542

          k = 0.6875 0.0625 0.8125 (   140 PWs)   bands (ev):

     6.6932   7.9393   9.7252  15.1989  19.8150  26.5040

          k = 0.5625 0.1875 0.6875 (   144 PWs)   bands (ev):

     5.0960   6.3631  13.4112  16.7991  21.5493  26.5264

          k = 0.4375 0.3125 0.5625 (   148 PWs)   bands (ev):

     3.0869   6.6342  17.9300  19.1638  22.6062  23.7191

          k =-0.0625-0.9375 0.0625 (   144 PWs)   bands (ev):

     5.5975   8.3564  13.3176  15.6370  16.3866  20.3577

          k =-0.1875-0.8125-0.0625 (   143 PWs)   bands (ev):

     3.9607  10.9571  11.8776  14.8081  18.7988  22.4018

          k =-0.3125-0.6875-0.1875 (   144 PWs)   bands (ev):

     3.0870   8.8749  14.6440  16.1115  20.6240  27.0240

          k =-0.0625-0.6875 0.0625 (   143 PWs)   bands (ev):

     1.8959  13.5056  14.2241  16.3835  17.2371  21.1407

          k =-0.1875-0.5625-0.0625 (   145 PWs)   bands (ev):

     0.6872  13.1558  15.8422  17.1687  20.1722  23.5762

          k =-0.0625-0.4375 0.0625 (   145 PWs)   bands (ev):

    -0.8486  16.1236  18.1368  19.0597  19.9953  22.7808

          k =-0.1875 0.1875 0.1875 (   150 PWs)   bands (ev):

    -1.7835  15.5464  21.4268  21.4268  25.0655  26.5566

          k =-0.3125 0.3125 0.0625 (   146 PWs)   bands (ev):

    -0.8489  14.0197  16.8696  23.3529  24.2054  25.4497

          k =-0.4375 0.4375-0.0625 (   144 PWs)   bands (ev):

     0.9909  11.2299  14.2087  20.7613  22.9518  25.9229

          k = 0.4375-0.4375 0.8125 (   146 PWs)   bands (ev):

     3.6754   7.1867  14.2736  18.9429  21.0213  26.3084

          k = 0.3125-0.3125 0.6875 (   146 PWs)   bands (ev):

     3.6737   7.2020  15.3123  17.9091  19.8545  27.3644

          k = 0.1875-0.1875 0.5625 (   145 PWs)   bands (ev):

     0.9910  11.3867  17.1513  17.6442  19.4681  25.4647

          k =-0.1875 0.4375 0.1875 (   145 PWs)   bands (ev):

    -0.2312  12.5153  18.6547  19.9959  20.8738  26.2910

          k =-0.3125 0.5625 0.0625 (   145 PWs)   bands (ev):

     1.2939  11.5017  14.4170  17.6630  22.8737  25.6397

          k = 0.5625-0.3125 0.9375 (   146 PWs)   bands (ev):

     3.6759   9.2661  12.1876  15.5399  24.3532  25.1636

          k = 0.4375-0.1875 0.8125 (   142 PWs)   bands (ev):

     5.6556   6.9295  12.6793  14.3462  22.9961  26.1717

          k = 0.3125-0.0625 0.6875 (   146 PWs)   bands (ev):

     2.7908  10.6520  13.3648  14.9086  22.0939  25.1619

          k =-0.1875 0.6875 0.1875 (   143 PWs)   bands (ev):

     2.4938  10.5252  14.1993  16.8900  18.5832  24.7913

          k = 0.6875-0.1875 1.0625 (   145 PWs)   bands (ev):

     4.5414  10.0546  11.5380  13.4620  21.5577  24.7456

          k = 0.5625-0.0625 0.9375 (   147 PWs)   bands (ev):

     7.2505   8.3843   9.9311  11.9160  24.3342  26.8723

          k = 0.4375 0.0625 0.8125 (   145 PWs)   bands (ev):

     5.4016   8.7003  11.3701  13.0783  24.5810  25.8583

          k =-0.1875-1.0625 0.1875 (   140 PWs)   bands (ev):

     6.1554   8.7671   9.9563  16.1413  17.6878  24.0833

          k =-0.3125-0.9375 0.0625 (   143 PWs)   bands (ev):

     6.4346   9.0562   9.9847  13.0582  21.2865  24.5242

          k =-0.1875-0.8125 0.1875 (   141 PWs)   bands (ev):

     4.2513   9.8915  11.5168  16.3909  17.9883  24.3229

          k =-0.3125 0.3125 0.3125 (   144 PWs)   bands (ev):

     0.0758  10.6089  20.9779  20.9779  24.1499  24.1500

          k =-0.4375 0.4375 0.1875 (   146 PWs)   bands (ev):

     1.2939   9.4574  16.4539  21.0157  23.1069  24.1484

          k = 0.4375-0.4375 1.0625 (   142 PWs)   bands (ev):

     3.3833   8.9919  11.9704  18.6909  20.7731  28.1649

          k = 0.3125-0.3125 0.9375 (   142 PWs)   bands (ev):

     6.2326   7.3446  10.2580  17.1550  19.0138  28.8733

          k =-0.3125 0.5625 0.3125 (   147 PWs)   bands (ev):

     2.1960   8.0588  18.2406  18.6704  20.6331  26.0195

          k = 0.5625-0.3125 1.1875 (   142 PWs)   bands (ev):

     3.9667   7.4695  14.3789  15.9078  23.4585  24.6792

          k = 0.4375-0.1875 1.0625 (   145 PWs)   bands (ev):

     6.5055   7.6188  10.4756  13.9453  22.7463  27.8056

          k =-0.3125-1.1875 0.3125 (   145 PWs)   bands (ev):

     5.3703   6.6589  12.5925  17.4061  19.2995  28.9954

          k =-0.4375 0.4375 0.4375 (   147 PWs)   bands (ev):

     2.7913   6.3492  21.2271  21.2271  22.3681  22.3682

          k = 0.4375-0.4375 1.3125 (   146 PWs)   bands (ev):

     4.2369   5.5075  16.9507  19.4516  21.4697  24.7132

     the Fermi energy is     9.2375 ev

!    total energy              =      -4.18712871 Ry
     estimated scf accuracy    <       0.00000032 Ry
     smearing contrib. (-TS)   =       0.00013248 Ry
     internal energy E=F+TS    =      -4.18726119 Ry

     The total energy is F=E-TS. E is the sum of the following terms:
     one-electron contribution =       3.16395827 Ry
     hartree contribution      =       0.01195248 Ry
     xc contribution           =      -1.68362947 Ry
     ewald contribution        =      -5.67954247 Ry

     convergence has been achieved in   3 iterations

     Writing all to output data dir ./tmp/Al.save/

     init_run     :      0.22s CPU      0.22s WALL (       1 calls)
     electrons    :      0.26s CPU      0.29s WALL (       1 calls)

     Called by init_run:
     wfcinit      :      0.05s CPU      0.05s WALL (       1 calls)
     potinit      :      0.02s CPU      0.02s WALL (       1 calls)
     hinit0       :      0.14s CPU      0.14s WALL (       1 calls)

     Called by electrons:
     c_bands      :      0.21s CPU      0.24s WALL (       4 calls)
     sum_band     :      0.04s CPU      0.04s WALL (       4 calls)
     v_of_rho     :      0.00s CPU      0.00s WALL (       4 calls)
     mix_rho      :      0.00s CPU      0.00s WALL (       4 calls)

     Called by c_bands:
     init_us_2    :      0.01s CPU      0.01s WALL (     540 calls)
     init_us_2:cp :      0.01s CPU      0.01s WALL (     540 calls)
     cegterg      :      0.21s CPU      0.23s WALL (     240 calls)

     Called by *egterg:
     cdiaghg      :      0.03s CPU      0.03s WALL (     656 calls)
     h_psi        :      0.17s CPU      0.18s WALL (     776 calls)
     g_psi        :      0.00s CPU      0.00s WALL (     476 calls)

     Called by h_psi:
     h_psi:calbec :      0.01s CPU      0.01s WALL (     776 calls)
     vloc_psi     :      0.15s CPU      0.17s WALL (     776 calls)
     add_vuspsi   :      0.01s CPU      0.01s WALL (     776 calls)

     General routines
     calbec       :      0.01s CPU      0.01s WALL (     776 calls)
     fft          :      0.14s CPU      0.14s WALL (      18 calls)
     ffts         :      0.02s CPU      0.02s WALL (       8 calls)
     fftw         :      0.11s CPU      0.12s WALL (    9330 calls)
     interpolate  :      0.02s CPU      0.02s WALL (       4 calls)

     Parallel routines

     PWSCF        :      0.50s CPU      0.53s WALL


   This run was terminated on:  16:38:48   2Jun2023            

=------------------------------------------------------------------------------=
   JOB DONE.
=------------------------------------------------------------------------------=
