
     Program PWSCF v.7.2 starts on 28May2023 at  4:22:24 

     This program is part of the open-source Quantum ESPRESSO suite
     for quantum simulation of materials; please cite
         "P. Giannozzi et al., J. Phys.:Condens. Matter 21 395502 (2009);
         "P. Giannozzi et al., J. Phys.:Condens. Matter 29 465901 (2017);
         "P. Giannozzi et al., J. Chem. Phys. 152 154105 (2020);
          URL http://www.quantum-espresso.org", 
     in publications or presentations arising from this work. More details at
     http://www.quantum-espresso.org/quote

     Parallel version (MPI), running on     1 processors

     MPI processes distributed on     1 nodes
     1895 MiB available memory on the printing compute node when the environment starts

     Reading input from 1.b2n2.hse.scf.in

     Current dimensions of program PWSCF are:
     Max number of different atomic species (ntypx) = 10
     Max number of k-points (npk) =  40000
     Max angular momentum in pseudopotentials (lmaxx) =  4
     file N.pbe-n-kjpaw_psl.1.0.0.UPF: wavefunction(s)  2S renormalized

     IMPORTANT: XC functional enforced from input :
     Exchange-correlation= PBE0
                           (   6   4   8   4   0   0   0)
     EXX-fraction              =        0.25
     Any further DFT definition will be discarded
     Please, verify this is what you really want

     Message from routine setup :
     BEWARE: nonlinear core correction is not consistent with hybrid XC
     Message from routine setup:
     using ibrav=0 with symmetry is DISCOURAGED, use correct ibrav instead

     Subspace diagonalization in iterative solution of the eigenvalue problem:
     a serial algorithm will be used

     EXX: q-point mesh:     3    3    1
     EXX: setup a grid of 36 q-points centered on each k-point
     (k+q)-points:
   0.0000000   0.0000000   0.0000000         1    1
  -0.0051236   0.2853865   0.0000000         3    1
   0.0051236  -0.2853865   0.0000000         3   -1
   0.3334803  -0.0051948   0.0000000        11    1
   0.3283567   0.2801916   0.0000000        13    1
   0.3386039  -0.2905813   0.0000000        15    1
  -0.3334803   0.0051948  -0.0000000        11   -1
  -0.3386039   0.2905813   0.0000000        15   -1
  -0.3283567  -0.2801916  -0.0000000        13   -1
  -0.0025618   0.1426932   0.0000000         2    1
   0.0076854  -0.4280797   0.0000000         4    1
   0.0025618  -0.1426932   0.0000000         2   -1
   0.3309185   0.1374984   0.0000000        12    1
   0.3411657  -0.4332746   0.0000000        14    1
   0.3360421  -0.1478881   0.0000000        16    1
  -0.3360421   0.1478881   0.0000000        16   -1
  -0.3411657   0.4332746   0.0000000        14   -1
  -0.3309185  -0.1374984  -0.0000000        12   -1
   0.1667402  -0.0025974   0.0000000         5    1
   0.1616166   0.2827891   0.0000000         7    1
   0.1718637  -0.2879839   0.0000000         9    1
  -0.5002205   0.0077923   0.0000000        17    1
  -0.5053440   0.2931787   0.0000000        19    1
   0.5053440  -0.2931787   0.0000000        19   -1
  -0.1667402   0.0025974  -0.0000000         5   -1
  -0.1718637   0.2879839   0.0000000         9   -1
  -0.1616166  -0.2827891  -0.0000000         7   -1
   0.1641784   0.1400958   0.0000000         6    1
   0.1744255  -0.4306771   0.0000000         8    1
   0.1693019  -0.1452907   0.0000000        10    1
  -0.5027823   0.1504855   0.0000000        18    1
  -0.4925351  -0.4202875   0.0000000        20    1
   0.5027823  -0.1504855   0.0000000        18   -1
  -0.1693019   0.1452907   0.0000000        10   -1
  -0.1744255   0.4306771   0.0000000         8   -1
  -0.1641784  -0.1400958  -0.0000000         6   -1

     G-vector sticks info
     --------------------
     sticks:   dense  smooth     PW     G-vecs:    dense   smooth      PW
     Sum        1001    1001    289                28603    28603    4499

     Using Slab Decomposition



     bravais-lattice index     =            0
     lattice parameter (alat)  =       8.4275  a.u.
     unit-cell volume          =     903.8296 (a.u.)^3
     number of atoms/cell      =            8
     number of atomic types    =            2
     number of electrons       =        32.00
     number of Kohn-Sham states=           20
     kinetic-energy cutoff     =      38.0000  Ry
     charge density cutoff     =     152.0000  Ry
     cutoff for Fock operator  =     152.0000  Ry
     scf convergence threshold =      1.0E-05
     mixing beta               =       0.7000
     number of iterations used =            8  plain     mixing
     Exchange-correlation= PBE0
                           (   6   4   8   4   0   0   0)
     EXX-fraction              =        0.25

     celldm(1)=   8.427464  celldm(2)=   0.000000  celldm(3)=   0.000000
     celldm(4)=   0.000000  celldm(5)=   0.000000  celldm(6)=   0.000000

     crystal axes: (cart. coord. in units of alat)
               a(1) = (   0.999839   0.017950   0.000000 )  
               a(2) = (   0.018200   1.168333   0.000000 )  
               a(3) = (   0.000000   0.000000   1.293065 )  

     reciprocal axes: (cart. coord. in units 2 pi/alat)
               b(1) = (  1.000441 -0.015585  0.000000 )  
               b(2) = ( -0.015371  0.856159  0.000000 )  
               b(3) = (  0.000000  0.000000  0.773356 )  


     PseudoPot. # 1 for B  read from file:
     ../B.pbe-n-kjpaw_psl.1.0.0.UPF
     MD5 check sum: 8c825a5969375aca5c2c6ad5945b3059
     Pseudo is Projector augmented-wave + core cor, Zval =  3.0
     Generated using &quot;atomic&quot; code by A. Dal Corso  v.6.3
     Shape of augmentation charge: PSQ
     Using radial grid of 1059 points,  4 beta functions with: 
                l(1) =   0
                l(2) =   0
                l(3) =   1
                l(4) =   1
     Q(r) pseudized with 0 coefficients 


     PseudoPot. # 2 for N  read from file:
     ../N.pbe-n-kjpaw_psl.1.0.0.UPF
     MD5 check sum: 14c48229446f9f2d411169a3abcbc3fa
     Pseudo is Projector augmented-wave + core cor, Zval =  5.0
     Generated using &quot;atomic&quot; code by A. Dal Corso  v.6.3
     Shape of augmentation charge: PSQ
     Using radial grid of 1085 points,  4 beta functions with: 
                l(1) =   0
                l(2) =   0
                l(3) =   1
                l(4) =   1
     Q(r) pseudized with 0 coefficients 


     atomic species   valence    mass     pseudopotential
        B              3.00    10.81100     B ( 1.00)
        N              5.00    14.00670     N ( 1.00)

      2 Sym. Ops. (no inversion) found



   Cartesian axes

     site n.     atom                  positions (alat units)
         1           B   tau(   1) = (   0.1957447   0.4525303   0.0000000  )
         2           B   tau(   2) = (   0.2048277   1.0367407   0.0000000  )
         3           B   tau(   3) = (   0.8199101   0.4406320   0.0000000  )
         4           B   tau(   4) = (   0.8290195   1.0247947   0.0000000  )
         5           N   tau(   5) = (   0.3470003   0.1740639   0.0000000  )
         6           N   tau(   6) = (   0.3561289   0.7581659   0.0000000  )
         7           N   tau(   7) = (   0.6595607   0.1350455   0.0000000  )
         8           N   tau(   8) = (   0.6686506   0.7192202   0.0000000  )

     number of k points=    20
                       cart. coord. in units 2pi/alat
        k(    1) = (   0.0000000   0.0000000   0.0000000), wk =   0.0555556
        k(    2) = (  -0.0025618   0.1426932   0.0000000), wk =   0.1111111
        k(    3) = (  -0.0051236   0.2853865   0.0000000), wk =   0.1111111
        k(    4) = (   0.0076854  -0.4280797   0.0000000), wk =   0.0555556
        k(    5) = (   0.1667402  -0.0025974   0.0000000), wk =   0.1111111
        k(    6) = (   0.1641784   0.1400958   0.0000000), wk =   0.1111111
        k(    7) = (   0.1616166   0.2827891   0.0000000), wk =   0.1111111
        k(    8) = (   0.1744255  -0.4306771   0.0000000), wk =   0.1111111
        k(    9) = (   0.1718637  -0.2879839   0.0000000), wk =   0.1111111
        k(   10) = (   0.1693019  -0.1452907   0.0000000), wk =   0.1111111
        k(   11) = (   0.3334803  -0.0051948   0.0000000), wk =   0.1111111
        k(   12) = (   0.3309185   0.1374984   0.0000000), wk =   0.1111111
        k(   13) = (   0.3283567   0.2801916   0.0000000), wk =   0.1111111
        k(   14) = (   0.3411657  -0.4332746   0.0000000), wk =   0.1111111
        k(   15) = (   0.3386039  -0.2905813   0.0000000), wk =   0.1111111
        k(   16) = (   0.3360421  -0.1478881   0.0000000), wk =   0.1111111
        k(   17) = (  -0.5002205   0.0077923   0.0000000), wk =   0.0555556
        k(   18) = (  -0.5027823   0.1504855   0.0000000), wk =   0.1111111
        k(   19) = (  -0.5053440   0.2931787   0.0000000), wk =   0.1111111
        k(   20) = (  -0.4925351  -0.4202875   0.0000000), wk =   0.0555556

     Dense  grid:    28603 G-vectors     FFT dimensions: (  36,  40,  45)

     Estimated max dynamical RAM per process >     718.51 MB
     EXX: ACE will be initialized later

     Check: negative core charge=   -0.000026

     Initial potential from superposition of free atoms

     starting charge      31.9988, renormalised to      32.0000
     Starting wfcs are   32 randomized atomic wfcs

     total cpu time spent up to now is        5.3 secs

     Self-consistent Calculation

     iteration #  1     ecut=    38.00 Ry     beta= 0.70
     Davidson diagonalization with overlap
     ethr =  1.00E-02,  avg # of iterations =  2.1

     negative rho (up, down):  7.624E-04 0.000E+00

     total cpu time spent up to now is       11.5 secs

     total energy              =    -158.68533922 Ry
     estimated scf accuracy    <       0.92522943 Ry

     iteration #  2     ecut=    38.00 Ry     beta= 0.70
     Davidson diagonalization with overlap
     ethr =  2.89E-03,  avg # of iterations =  2.8

     negative rho (up, down):  1.667E-03 0.000E+00

     total cpu time spent up to now is       16.4 secs

     total energy              =    -158.76687593 Ry
     estimated scf accuracy    <       0.40021337 Ry

     iteration #  3     ecut=    38.00 Ry     beta= 0.70
     Davidson diagonalization with overlap
     ethr =  1.25E-03,  avg # of iterations =  2.2

     negative rho (up, down):  3.379E-03 0.000E+00

     total cpu time spent up to now is       22.5 secs

     total energy              =    -158.88004263 Ry
     estimated scf accuracy    <       0.09384102 Ry

     iteration #  4     ecut=    38.00 Ry     beta= 0.70
     Davidson diagonalization with overlap
     ethr =  2.93E-04,  avg # of iterations =  2.6

     negative rho (up, down):  4.493E-03 0.000E+00

     total cpu time spent up to now is       26.7 secs

     total energy              =    -158.89431024 Ry
     estimated scf accuracy    <       0.00135714 Ry

     iteration #  5     ecut=    38.00 Ry     beta= 0.70
     Davidson diagonalization with overlap
     ethr =  4.24E-06,  avg # of iterations =  6.8

     negative rho (up, down):  4.891E-03 0.000E+00

     total cpu time spent up to now is       33.4 secs

     total energy              =    -158.89487436 Ry
     estimated scf accuracy    <       0.00018796 Ry

     iteration #  6     ecut=    38.00 Ry     beta= 0.70
     Davidson diagonalization with overlap
     ethr =  5.87E-07,  avg # of iterations =  2.5

     negative rho (up, down):  4.872E-03 0.000E+00

     total cpu time spent up to now is       37.9 secs

     End of self-consistent calculation

          k = 0.0000 0.0000 0.0000 (  3587 PWs)   bands (ev):

   -19.4764 -18.0855 -13.0860 -12.1923  -9.8910  -9.2197  -7.8546  -5.6329
    -5.4580  -5.1883  -3.1062  -2.6108  -2.2673  -0.6767   0.1286   1.2245
     2.7803   3.9467   4.0783   6.7950

          k =-0.0026 0.1427 0.0000 (  3587 PWs)   bands (ev):

   -19.4031 -18.2080 -13.0313 -12.2434  -9.6695  -9.1565  -7.9360  -5.5910
    -5.4309  -5.3487  -3.3558  -2.5091  -2.4070  -0.5684  -0.0716   1.1676
     2.8373   4.0597   4.1433   7.2203

          k =-0.0051 0.2854 0.0000 (  3568 PWs)   bands (ev):

   -19.1922 -18.5124 -12.8763 -12.4105  -9.0718  -8.9826  -8.0893  -6.5639
    -5.0293  -4.8535  -3.9201  -3.1648  -1.8851  -0.5730  -0.2536   0.7863
     3.2167   3.9611   4.6720   6.5245

          k = 0.0077-0.4281 0.0000 (  3564 PWs)   bands (ev):

   -18.8753 -18.8740 -12.6507 -12.6486  -8.7858  -8.7856  -7.6484  -7.6478
    -4.5298  -4.5292  -4.0298  -4.0279  -1.2223  -1.2208   0.2302   0.2321
     3.6837   3.6850   5.4693   5.4694

          k = 0.1667-0.0026 0.0000 (  3583 PWs)   bands (ev):

   -19.4430 -18.0535 -13.4056 -12.3728  -9.9079  -8.6245  -7.6083  -5.8041
    -5.3421  -5.1205  -3.0740  -2.4255  -2.2052  -1.1418  -0.4884   1.2643
     2.7489   4.1344   4.7245   6.3614

          k = 0.1642 0.1401 0.0000 (  3601 PWs)   bands (ev):

   -19.3707 -18.1739 -13.3297 -12.4772  -9.6261  -8.6415  -7.5821  -5.6771
    -5.4895  -5.2461  -3.2780  -2.5980  -2.1167  -0.9811  -0.6430   0.7880
     3.3097   4.3225   4.5940   6.6766

          k = 0.1616 0.2828 0.0000 (  3591 PWs)   bands (ev):

   -19.1608 -18.4770 -13.1453 -12.6985  -8.9015  -8.5934  -7.7005  -6.4111
    -5.1413  -4.9433  -3.8078  -3.2414  -1.8029  -0.9383  -0.5980   0.2264
     3.9332   4.3502   4.8421   7.6181

          k = 0.1744-0.4307 0.0000 (  3570 PWs)   bands (ev):

   -18.8442 -18.8388 -12.9697 -12.8829  -8.6377  -8.1386  -7.6493  -7.3593
    -4.4649  -4.4013  -4.3155  -4.1314  -1.3758  -1.2944  -0.3418  -0.0124
     3.8933   4.4684   5.6282   5.7023

          k = 0.1719-0.2880 0.0000 (  3567 PWs)   bands (ev):

   -19.1568 -18.4822 -13.2090 -12.6057  -9.1422  -8.3076  -7.7080  -6.5581
    -4.9768  -4.8990  -3.8811  -3.4314  -1.6883  -0.9446  -0.7997   0.7154
     3.2073   4.7411   4.8878   6.6583

          k = 0.1693-0.1453 0.0000 (  3578 PWs)   bands (ev):

   -19.3686 -18.1774 -13.3630 -12.4121  -9.7202  -8.5099  -7.6767  -5.5638
    -5.5549  -5.2236  -3.3357  -2.7362  -2.0344  -1.0776  -0.6065   1.3652
     2.5739   4.3435   4.7887   6.8864

          k = 0.3335-0.0052 0.0000 (  3579 PWs)   bands (ev):

   -19.3728 -17.9865 -13.9133 -12.7109  -9.8511  -7.4827  -7.3729  -5.7384
    -5.0579  -4.9871  -3.0083  -2.8046  -1.9624  -1.7526  -1.4922   1.3107
     2.7793   4.7015   5.5496   6.0524

          k = 0.3309 0.1375 0.0000 (  3593 PWs)   bands (ev):

   -19.3006 -18.1062 -13.8368 -12.8360  -9.5607  -7.4663  -7.2899  -5.6991
    -5.3209  -4.9714  -3.1720  -2.8024  -1.9791  -1.7972  -1.5972   0.5496
     3.7058   4.8871   5.7782   5.8610

          k = 0.3284 0.2802 0.0000 (  3576 PWs)   bands (ev):

   -19.0910 -18.4081 -13.6406 -13.1047  -8.8034  -7.6173  -7.0377  -6.1659
    -5.3604  -4.6904  -3.6281  -3.4165  -1.9882  -1.7399  -1.3897  -0.2958
     4.7191   5.3991   5.4890   6.6425

          k = 0.3412-0.4333 0.0000 (  3564 PWs)   bands (ev):

   -18.7749 -18.7691 -13.4180 -13.3530  -8.1088  -7.7409  -6.9618  -6.8776
    -4.6492  -4.3253  -4.2483  -4.1657  -1.8372  -1.8127  -1.0227  -0.7525
     4.8494   5.5279   6.1703   7.7062

          k = 0.3386-0.2906 0.0000 (  3562 PWs)   bands (ev):

   -19.0867 -18.4138 -13.6878 -13.0340  -8.9583  -7.1896  -7.1652  -6.4284
    -5.1089  -4.6308  -3.8093  -3.7181  -1.8346  -1.6226  -1.5633   0.0823
     3.9501   5.4918   5.9789   6.8880

          k = 0.3360-0.1479 0.0000 (  3570 PWs)   bands (ev):

   -19.2983 -18.1100 -13.8613 -12.7850  -9.6300  -7.4122  -7.2632  -5.5703
    -5.4390  -4.9404  -3.2364  -3.1486  -1.8822  -1.7439  -1.4983   1.0074
     2.9951   4.9265   6.0804   6.1108

          k =-0.5002 0.0078 0.0000 (  3568 PWs)   bands (ev):

   -19.3358 -17.9514 -14.1292 -12.8700  -9.7913  -7.5783  -6.5561  -5.5337
    -4.9690  -4.8711  -3.1207  -2.9738  -2.4017  -2.3681  -1.1575   1.3128
     2.8660   5.1346   5.4181   5.5396

          k =-0.5028 0.1505 0.0000 (  3582 PWs)   bands (ev):

   -19.2626 -18.0727 -14.0634 -12.9792  -9.5268  -7.3911  -6.6064  -5.4444
    -5.3312  -4.7749  -3.1490  -3.1392  -2.6150  -2.2389  -1.3421   0.6211
     3.6318   5.4717   5.9037   6.8412

          k =-0.5053 0.2932 0.0000 (  3575 PWs)   bands (ev):

   -19.0520 -18.3750 -13.8733 -13.2554  -8.7891  -6.9798  -6.8794  -6.1141
    -5.1148  -4.4955  -3.6343  -3.5759  -2.6269  -1.8537  -1.7775  -0.3738
     4.8065   6.3370   6.5057   6.8435

          k =-0.4925-0.4203 0.0000 (  3554 PWs)   bands (ev):

   -18.7362 -18.7348 -13.5865 -13.5845  -7.7616  -7.7606  -6.5947  -6.5932
    -4.4620  -4.4615  -4.0705  -4.0699  -2.2593  -2.2590  -1.2236  -1.2222
     5.8252   5.8266   7.4061   7.4070

     highest occupied, lowest unoccupied level (ev):     1.3652    2.5739

!    total energy              =    -158.89490138 Ry
     estimated scf accuracy    <       0.00000285 Ry

     convergence has been achieved in   6 iterations

     Using ACE for calculation of exact exchange

     EXX grid:    28603 G-vectors     FFT dimensions: (  36,  40,  45)
     ACE projected onto    20 (nbndproj) and applied to    20 (nbnd) bands
