
     Program PWSCF v.7.2 starts on  2Jun2023 at  2:26: 1 

     This program is part of the open-source Quantum ESPRESSO suite
     for quantum simulation of materials; please cite
         "P. Giannozzi et al., J. Phys.:Condens. Matter 21 395502 (2009);
         "P. Giannozzi et al., J. Phys.:Condens. Matter 29 465901 (2017);
         "P. Giannozzi et al., J. Chem. Phys. 152 154105 (2020);
          URL http://www.quantum-espresso.org", 
     in publications or presentations arising from this work. More details at
     http://www.quantum-espresso.org/quote

     Parallel version (MPI), running on     1 processors

     MPI processes distributed on     1 nodes
     189 MiB available memory on the printing compute node when the environment starts

     Reading input from 1_c.scf.in

     Current dimensions of program PWSCF are:
     Max number of different atomic species (ntypx) = 10
     Max number of k-points (npk) =  40000
     Max angular momentum in pseudopotentials (lmaxx) =  4

     IMPORTANT: XC functional enforced from input :
     Exchange-correlation= HSE
                           (   1   4  12   4   0   0   0)
     EXX-fraction              =        0.25
     Any further DFT definition will be discarded
     Please, verify this is what you really want


     Subspace diagonalization in iterative solution of the eigenvalue problem:
     a serial algorithm will be used

     EXX: q-point mesh:     1    1    4
     EXX: setup a grid of 40 q-points centered on each k-point
     (k+q)-points:
  -0.5000000  -0.5000000   0.0972990         1    1
  -0.5000000  -0.5000000   2.0432786        11    1
   0.5000000   0.5000000  -3.7946602        20   -1
   0.5000000   0.5000000  -1.8486806        10   -1
  -0.5000000  -0.5000000   0.2918969         2    1
  -0.5000000  -0.5000000   2.2378765        12    1
   0.5000000   0.5000000  -3.6000623        19   -1
   0.5000000   0.5000000  -1.6540827         9   -1
  -0.5000000  -0.5000000   0.4864949         3    1
  -0.5000000  -0.5000000   2.4324745        13    1
   0.5000000   0.5000000  -3.4054643        18   -1
   0.5000000   0.5000000  -1.4594847         8   -1
  -0.5000000  -0.5000000   0.6810929         4    1
  -0.5000000  -0.5000000   2.6270725        14    1
   0.5000000   0.5000000  -3.2108664        17   -1
   0.5000000   0.5000000  -1.2648867         7   -1
  -0.5000000  -0.5000000   0.8756908         5    1
  -0.5000000  -0.5000000   2.8216704        15    1
   0.5000000   0.5000000  -3.0162684        16   -1
   0.5000000   0.5000000  -1.0702888         6   -1
  -0.5000000  -0.5000000   1.0702888         6    1
  -0.5000000  -0.5000000   3.0162684        16    1
   0.5000000   0.5000000  -2.8216704        15   -1
   0.5000000   0.5000000  -0.8756908         5   -1
  -0.5000000  -0.5000000   1.2648867         7    1
  -0.5000000  -0.5000000   3.2108664        17    1
   0.5000000   0.5000000  -2.6270725        14   -1
   0.5000000   0.5000000  -0.6810929         4   -1
  -0.5000000  -0.5000000   1.4594847         8    1
  -0.5000000  -0.5000000   3.4054643        18    1
   0.5000000   0.5000000  -2.4324745        13   -1
   0.5000000   0.5000000  -0.4864949         3   -1
  -0.5000000  -0.5000000   1.6540827         9    1
  -0.5000000  -0.5000000   3.6000623        19    1
   0.5000000   0.5000000  -2.2378765        12   -1
   0.5000000   0.5000000  -0.2918969         2   -1
  -0.5000000  -0.5000000   1.8486806        10    1
  -0.5000000  -0.5000000   3.7946602        20    1
   0.5000000   0.5000000  -2.0432786        11   -1
   0.5000000   0.5000000  -0.0972990         1   -1

     G-vector sticks info
     --------------------
     sticks:   dense  smooth     PW     G-vecs:    dense   smooth      PW
     Sum        5129    5129   1801                35379    35379    7335

     Using Slab Decomposition



     bravais-lattice index     =            6
     lattice parameter (alat)  =      18.8973  a.u.
     unit-cell volume          =     866.9585 (a.u.)^3
     number of atoms/cell      =            1
     number of atomic types    =            1
     number of electrons       =         4.00
     number of Kohn-Sham states=            8
     kinetic-energy cutoff     =      45.0000  Ry
     charge density cutoff     =     180.0000  Ry
     cutoff for Fock operator  =     180.0000  Ry
     scf convergence threshold =      1.0E-06
     mixing beta               =       0.7000
     number of iterations used =            8  plain     mixing
     Exchange-correlation= HSE
                           (   1   4  12   4   0   0   0)
     EXX-fraction              =        0.25

     celldm(1)=  18.897261  celldm(2)=   1.000000  celldm(3)=   0.128470
     celldm(4)=   0.000000  celldm(5)=   0.000000  celldm(6)=   0.000000

     crystal axes: (cart. coord. in units of alat)
               a(1) = (   1.000000   0.000000   0.000000 )  
               a(2) = (   0.000000   1.000000   0.000000 )  
               a(3) = (   0.000000   0.000000   0.128470 )  

     reciprocal axes: (cart. coord. in units 2 pi/alat)
               b(1) = (  1.000000  0.000000  0.000000 )  
               b(2) = (  0.000000  1.000000  0.000000 )  
               b(3) = (  0.000000  0.000000  7.783918 )  


     PseudoPot. # 1 for C  read from file:
     ./C_ONCV_PBE_sr.upf
     MD5 check sum: b68b6074392897e22e8b22f1bd7aa93e
     Pseudo is Norm-conserving, Zval =  4.0
     Generated using ONCVPSP code by D. R. Hamann
     Using radial grid of 1248 points,  4 beta functions with: 
                l(1) =   0
                l(2) =   0
                l(3) =   1
                l(4) =   1

     atomic species   valence    mass     pseudopotential
        C              4.00    12.01100     C ( 1.00)

     16 Sym. Ops., with inversion, found



   Cartesian axes

     site n.     atom                  positions (alat units)
         1           C   tau(   1) = (   0.0000000   0.0000000   0.0000000  )

     number of k points=    20  Methfessel-Paxton smearing, width (Ry)=  0.0100
                       cart. coord. in units 2pi/alat
        k(    1) = (  -0.5000000  -0.5000000   0.0972990), wk =   0.1000000
        k(    2) = (  -0.5000000  -0.5000000   0.2918969), wk =   0.1000000
        k(    3) = (  -0.5000000  -0.5000000   0.4864949), wk =   0.1000000
        k(    4) = (  -0.5000000  -0.5000000   0.6810929), wk =   0.1000000
        k(    5) = (  -0.5000000  -0.5000000   0.8756908), wk =   0.1000000
        k(    6) = (  -0.5000000  -0.5000000   1.0702888), wk =   0.1000000
        k(    7) = (  -0.5000000  -0.5000000   1.2648867), wk =   0.1000000
        k(    8) = (  -0.5000000  -0.5000000   1.4594847), wk =   0.1000000
        k(    9) = (  -0.5000000  -0.5000000   1.6540827), wk =   0.1000000
        k(   10) = (  -0.5000000  -0.5000000   1.8486806), wk =   0.1000000
        k(   11) = (  -0.5000000  -0.5000000   2.0432786), wk =   0.1000000
        k(   12) = (  -0.5000000  -0.5000000   2.2378765), wk =   0.1000000
        k(   13) = (  -0.5000000  -0.5000000   2.4324745), wk =   0.1000000
        k(   14) = (  -0.5000000  -0.5000000   2.6270725), wk =   0.1000000
        k(   15) = (  -0.5000000  -0.5000000   2.8216704), wk =   0.1000000
        k(   16) = (  -0.5000000  -0.5000000   3.0162684), wk =   0.1000000
        k(   17) = (  -0.5000000  -0.5000000   3.2108664), wk =   0.1000000
        k(   18) = (  -0.5000000  -0.5000000   3.4054643), wk =   0.1000000
        k(   19) = (  -0.5000000  -0.5000000   3.6000623), wk =   0.1000000
        k(   20) = (  -0.5000000  -0.5000000   3.7946602), wk =   0.1000000

     Dense  grid:    35379 G-vectors     FFT dimensions: (  81,  81,  12)

     Estimated max dynamical RAM per process >     394.89 MB
     EXX: ACE will be initialized later

     Initial potential from superposition of free atoms

     starting charge       4.0000, renormalised to       4.0000

     negative rho (up, down):  1.304E-04 0.000E+00
     Starting wfcs are    4 randomized atomic wfcs +    4 random wfcs

     total cpu time spent up to now is        1.0 secs

     Self-consistent Calculation

     iteration #  1     ecut=    45.00 Ry     beta= 0.70
     Davidson diagonalization with overlap
     ethr =  1.00E-02,  avg # of iterations =  7.3

     negative rho (up, down):  3.006E-05 0.000E+00

     total cpu time spent up to now is        3.2 secs

     total energy              =     -11.29102616 Ry
     estimated scf accuracy    <       0.12166590 Ry

     iteration #  2     ecut=    45.00 Ry     beta= 0.70
     Davidson diagonalization with overlap
     ethr =  3.04E-03,  avg # of iterations =  1.8

     negative rho (up, down):  6.580E-06 0.000E+00

     total cpu time spent up to now is        4.2 secs

     total energy              =     -11.31425148 Ry
     estimated scf accuracy    <       0.00318646 Ry

     iteration #  3     ecut=    45.00 Ry     beta= 0.70
     Davidson diagonalization with overlap
     ethr =  7.97E-05,  avg # of iterations =  6.5

     total cpu time spent up to now is        5.7 secs

     total energy              =     -11.31468528 Ry
     estimated scf accuracy    <       0.00011239 Ry

     iteration #  4     ecut=    45.00 Ry     beta= 0.70
     Davidson diagonalization with overlap
     ethr =  2.81E-06,  avg # of iterations =  6.7

     total cpu time spent up to now is        7.3 secs

     End of self-consistent calculation

          k =-0.5000-0.5000 0.0973 (  4496 PWs)   bands (ev):

   -20.7279  -9.7285  -9.7285   0.3537   0.8832   0.8832   1.1845   2.7710

          k =-0.5000-0.5000 0.2919 (  4480 PWs)   bands (ev):

   -20.6635  -9.6200  -9.6200   0.4600   0.9968   0.9968   1.2984   2.8849

          k =-0.5000-0.5000 0.4865 (  4480 PWs)   bands (ev):

   -20.5355  -9.4049  -9.4049   0.6725   1.2239   1.2239   1.5262   3.1129

          k =-0.5000-0.5000 0.6811 (  4480 PWs)   bands (ev):

   -20.3452  -9.0822  -9.0822   0.9901   1.5645   1.5646   1.8679   3.4546

          k =-0.5000-0.5000 0.8757 (  4488 PWs)   bands (ev):

   -20.0942  -8.6534  -8.6534   1.4116   2.0185   2.0186   2.3236   3.9101

          k =-0.5000-0.5000 1.0703 (  4456 PWs)   bands (ev):

   -19.7842  -8.1170  -8.1170   1.9347   2.5860   2.5862   2.8931   4.4798

          k =-0.5000-0.5000 1.2649 (  4476 PWs)   bands (ev):

   -19.4199  -7.4783  -7.4783   2.5553   3.2667   3.2668   3.5766   5.1632

          k =-0.5000-0.5000 1.4595 (  4484 PWs)   bands (ev):

   -19.0043  -6.7357  -6.7357   3.2673   4.0607   4.0608   4.3740   5.9614

          k =-0.5000-0.5000 1.6541 (  4448 PWs)   bands (ev):

   -18.5432  -5.8885  -5.8885   4.0581   4.9678   4.9679   5.2854   6.8718

          k =-0.5000-0.5000 1.8487 (  4440 PWs)   bands (ev):

   -18.0412  -4.9434  -4.9434   4.9032   5.9877   5.9878   6.3106   7.8970

          k =-0.5000-0.5000 2.0433 (  4432 PWs)   bands (ev):

   -17.5075  -3.9039  -3.9039   5.7490   7.1200   7.1200   7.4498   9.0361

          k =-0.5000-0.5000 2.2379 (  4408 PWs)   bands (ev):

   -16.9493  -2.7734  -2.7734   6.4739   8.3642   8.3643   8.7029  10.3419

          k =-0.5000-0.5000 2.4325 (  4388 PWs)   bands (ev):

   -16.3784  -1.5599  -1.5599   6.8561   9.7194   9.7195  10.0699  10.8928

          k =-0.5000-0.5000 2.6271 (  4364 PWs)   bands (ev):

   -15.8085  -0.2736  -0.2736   6.7486  11.1838  11.1838  11.5508  11.7432

          k =-0.5000-0.5000 2.8217 (  4372 PWs)   bands (ev):

   -15.2580   1.0641   1.0641   6.2871  12.7537  12.7538  12.9389  13.1456

          k =-0.5000-0.5000 3.0163 (  4356 PWs)   bands (ev):

   -14.7420   2.4310   2.4310   5.6906  14.3807  14.4209  14.4210  14.8544

          k =-0.5000-0.5000 3.2109 (  4348 PWs)   bands (ev):

   -14.2845   3.7775   3.7775   5.0974  15.9968  16.1588  16.1589  16.6770

          k =-0.5000-0.5000 3.4055 (  4336 PWs)   bands (ev):

   -13.9160   4.5914   5.0312   5.0312  17.7452  17.8319  17.8320  18.6136

          k =-0.5000-0.5000 3.6001 (  4328 PWs)   bands (ev):

   -13.6511   4.2263   6.0500   6.0500  18.6350  18.6350  19.5866  20.6642

          k =-0.5000-0.5000 3.7947 (  4344 PWs)   bands (ev):

   -13.5163   4.0353   6.6436   6.6436  18.4453  18.4453  21.3814  22.6461

     the Fermi energy is    -4.4236 ev

!    total energy              =     -11.31469257 Ry
     estimated scf accuracy    <       0.00000022 Ry
     smearing contrib. (-TS)   =       0.00000001 Ry
     internal energy E=F+TS    =     -11.31469258 Ry

     convergence has been achieved in   4 iterations

     Using ACE for calculation of exact exchange

     EXX grid:    35379 G-vectors     FFT dimensions: (  81,  81,  12)
     ACE projected onto     8 (nbndproj) and applied to     8 (nbnd) bands

     EXX: now go back to refine exchange calculation

     total cpu time spent up to now is       21.4 secs

     Self-consistent Calculation

     iteration #  1     ecut=    45.00 Ry     beta= 0.70
     Davidson diagonalization with overlap
     ethr =  2.81E-06,  avg # of iterations =  5.7

     total cpu time spent up to now is       23.6 secs

     total energy              =     -11.30755102 Ry
     estimated scf accuracy    <       0.00018932 Ry

     iteration #  2     ecut=    45.00 Ry     beta= 0.70
     Davidson diagonalization with overlap
     ethr =  4.73E-06,  avg # of iterations =  1.6

     total cpu time spent up to now is       24.7 secs

     total energy              =     -11.30758231 Ry
     estimated scf accuracy    <       0.00000656 Ry

     iteration #  3     ecut=    45.00 Ry     beta= 0.70
     Davidson diagonalization with overlap
     ethr =  1.64E-07,  avg # of iterations =  1.5

     total cpu time spent up to now is       25.7 secs

     End of self-consistent calculation

          k =-0.5000-0.5000 0.0973 (  4496 PWs)   bands (ev):

   -23.1107 -10.7318 -10.7317   0.5533   0.9736   0.9736   1.2175   2.9353

          k =-0.5000-0.5000 0.2919 (  4480 PWs)   bands (ev):

   -23.0439 -10.6196 -10.6195   0.6602   1.0873   1.0873   1.3314   3.0490

          k =-0.5000-0.5000 0.4865 (  4480 PWs)   bands (ev):

   -22.9103 -10.3990 -10.3990   0.8742   1.3147   1.3147   1.5592   3.2768

          k =-0.5000-0.5000 0.6811 (  4480 PWs)   bands (ev):

   -22.7116 -10.0687 -10.0687   1.1944   1.6556   1.6556   1.9009   3.6186

          k =-0.5000-0.5000 0.8757 (  4488 PWs)   bands (ev):

   -22.4486  -9.6297  -9.6297   1.6196   2.1102   2.1102   2.3566   4.0745

          k =-0.5000-0.5000 1.0703 (  4456 PWs)   bands (ev):

   -22.1228  -9.0802  -9.0802   2.1480   2.6783   2.6783   2.9263   4.6445

          k =-0.5000-0.5000 1.2649 (  4476 PWs)   bands (ev):

   -21.7374  -8.4253  -8.4253   2.7762   3.3599   3.3599   3.6098   5.3285

          k =-0.5000-0.5000 1.4595 (  4484 PWs)   bands (ev):

   -21.2939  -7.6638  -7.6637   3.4989   4.1548   4.1548   4.4073   6.1268

          k =-0.5000-0.5000 1.6541 (  4448 PWs)   bands (ev):

   -20.7971  -6.7953  -6.7953   4.3064   5.0632   5.0632   5.3188   7.0387

          k =-0.5000-0.5000 1.8487 (  4440 PWs)   bands (ev):

   -20.2510  -5.8277  -5.8276   5.1796   6.0846   6.0846   6.3441   8.0649

          k =-0.5000-0.5000 2.0433 (  4432 PWs)   bands (ev):

   -19.3631  -3.2298  -3.2297   6.1602   7.2319   7.2319   7.4873   9.2420

          k =-0.5000-0.5000 2.2379 (  4408 PWs)   bands (ev):

   -18.7654  -2.0669  -2.0668   7.0057   8.4785   8.4785   8.7404  10.5399

          k =-0.5000-0.5000 2.4325 (  4388 PWs)   bands (ev):

   -18.1544  -0.8190  -0.8190   7.5853   9.8368   9.8368  10.1074  11.3335

          k =-0.5000-0.5000 2.6271 (  4364 PWs)   bands (ev):

   -17.5464   0.5055   0.5055   7.6679  11.3057  11.3057  11.5884  12.1036

          k =-0.5000-0.5000 2.8217 (  4372 PWs)   bands (ev):

   -16.9615   1.8878   1.8879   7.3039  12.8826  12.8826  13.1833  13.2491

          k =-0.5000-0.5000 3.0163 (  4356 PWs)   bands (ev):

   -16.4153   3.3090   3.3090   6.7374  14.5626  14.5626  14.6769  14.8921

          k =-0.5000-0.5000 3.2109 (  4348 PWs)   bands (ev):

   -15.9317   4.7241   4.7241   6.1427  16.2968  16.3307  16.3307  16.7148

          k =-0.5000-0.5000 3.4055 (  4336 PWs)   bands (ev):

   -15.5392   5.6211   6.0655   6.0656  18.0598  18.1204  18.1204  18.6514

          k =-0.5000-0.5000 3.6001 (  4328 PWs)   bands (ev):

   -15.2503   5.2354   7.1943   7.1944  19.3883  19.3883  19.9277  20.7020

          k =-0.5000-0.5000 3.7947 (  4344 PWs)   bands (ev):

   -15.0902   5.0232   7.9071   7.9072  19.3047  19.3047  21.7864  22.7702

     the Fermi energy is    -4.7267 ev

!    total energy              =     -11.30758305 Ry
     estimated scf accuracy    <       0.00000028 Ry
     smearing contrib. (-TS)   =       0.00000000 Ry
     internal energy E=F+TS    =     -11.30758305 Ry

     convergence has been achieved in   3 iterations

     Using ACE for calculation of exact exchange
     ACE projected onto     8 (nbndproj) and applied to     8 (nbnd) bands

     total energy              =     -11.30761919 Ry
     Harris-Foulkes estimate   =     -11.30761930 Ry
     est. exchange err (dexx)  =       0.00003613 Ry
     - averaged Fock potential =       1.30151690 Ry
     + Fock energy (ACE)       =      -0.65058346 Ry

     EXX: now go back to refine exchange calculation

     total cpu time spent up to now is       39.4 secs

     Self-consistent Calculation

     iteration #  1     ecut=    45.00 Ry     beta= 0.70
     Davidson diagonalization with overlap
     ethr =  1.64E-07,  avg # of iterations =  2.0

     total cpu time spent up to now is       40.5 secs

     total energy              =     -11.30762158 Ry
     estimated scf accuracy    <       0.00000105 Ry

     iteration #  2     ecut=    45.00 Ry     beta= 0.70
     Davidson diagonalization with overlap
     ethr =  2.62E-08,  avg # of iterations =  1.6

     total cpu time spent up to now is       41.6 secs

     End of self-consistent calculation

          k =-0.5000-0.5000 0.0973 (  4496 PWs)   bands (ev):

   -23.1204 -10.7329 -10.7328   0.5552   0.9765   0.9765   1.2190   2.9382

          k =-0.5000-0.5000 0.2919 (  4480 PWs)   bands (ev):

   -23.0531 -10.6206 -10.6206   0.6621   1.0903   1.0903   1.3329   3.0519

          k =-0.5000-0.5000 0.4865 (  4480 PWs)   bands (ev):

   -22.9194 -10.4003 -10.4003   0.8761   1.3176   1.3176   1.5607   3.2797

          k =-0.5000-0.5000 0.6811 (  4480 PWs)   bands (ev):

   -22.7207 -10.0702 -10.0702   1.1962   1.6586   1.6586   1.9025   3.6215

          k =-0.5000-0.5000 0.8757 (  4488 PWs)   bands (ev):

   -22.4581  -9.6314  -9.6314   1.6214   2.1131   2.1131   2.3582   4.0773

          k =-0.5000-0.5000 1.0703 (  4456 PWs)   bands (ev):

   -22.1328  -9.0820  -9.0820   2.1496   2.6813   2.6813   2.9278   4.6472

          k =-0.5000-0.5000 1.2649 (  4476 PWs)   bands (ev):

   -21.7484  -8.4274  -8.4274   2.7776   3.3628   3.3628   3.6113   5.3312

          k =-0.5000-0.5000 1.4595 (  4484 PWs)   bands (ev):

   -21.3063  -7.6659  -7.6659   3.5000   4.1578   4.1578   4.4088   6.1294

          k =-0.5000-0.5000 1.6541 (  4448 PWs)   bands (ev):

   -20.8112  -6.7974  -6.7974   4.3071   5.0662   5.0662   5.3202   7.0412

          k =-0.5000-0.5000 1.8487 (  4440 PWs)   bands (ev):

   -20.2669  -5.8298  -5.8298   5.1796   6.0876   6.0876   6.3456   8.0674

          k =-0.5000-0.5000 2.0433 (  4432 PWs)   bands (ev):

   -19.3720  -3.2303  -3.2303   6.1590   7.2347   7.2347   7.4888   9.2447

          k =-0.5000-0.5000 2.2379 (  4408 PWs)   bands (ev):

   -18.7750  -2.0678  -2.0678   7.0038   8.4813   8.4813   8.7419  10.4981

          k =-0.5000-0.5000 2.4325 (  4388 PWs)   bands (ev):

   -18.1649  -0.8203  -0.8203   7.5819   9.8396   9.8396  10.1089  11.3338

          k =-0.5000-0.5000 2.6271 (  4364 PWs)   bands (ev):

   -17.5579   0.5040   0.5040   7.6639  11.3085  11.3085  11.5899  12.1054

          k =-0.5000-0.5000 2.8217 (  4372 PWs)   bands (ev):

   -16.9743   1.8863   1.8863   7.3009  12.8853  12.8853  13.1847  13.2515

          k =-0.5000-0.5000 3.0163 (  4356 PWs)   bands (ev):

   -16.4296   3.3076   3.3076   6.7361  14.5654  14.5654  14.6793  14.8935

          k =-0.5000-0.5000 3.2109 (  4348 PWs)   bands (ev):

   -15.9475   4.7233   4.7233   6.1430  16.2991  16.3333  16.3333  16.7162

          k =-0.5000-0.5000 3.4055 (  4336 PWs)   bands (ev):

   -15.5568   5.6231   6.0659   6.0659  18.0617  18.1221  18.1221  18.6528

          k =-0.5000-0.5000 3.6001 (  4328 PWs)   bands (ev):

   -15.2697   5.2386   7.1963   7.1963  19.3851  19.3851  19.9292  20.7034

          k =-0.5000-0.5000 3.7947 (  4344 PWs)   bands (ev):

   -15.1106   5.0269   7.9112   7.9112  19.2965  19.2965  21.7869  22.7724

     the Fermi energy is    -4.7316 ev

!    total energy              =     -11.30762174 Ry
     estimated scf accuracy    <       0.00000003 Ry
     smearing contrib. (-TS)   =       0.00000000 Ry
     internal energy E=F+TS    =     -11.30762174 Ry

     convergence has been achieved in   2 iterations

     Using ACE for calculation of exact exchange
     ACE projected onto     8 (nbndproj) and applied to     8 (nbnd) bands

!!   total energy              =     -11.30762194 Ry
     Harris-Foulkes estimate   =     -11.30762196 Ry
     est. exchange err (dexx)  =       0.00000020 Ry
     - averaged Fock potential =       1.30112280 Ry
     + Fock energy (ACE)       =      -0.65053954 Ry

     EXX self-consistency reached

     Writing all to output data dir ./outdir/hse.save/

     init_run     :      0.89s CPU      0.92s WALL (       1 calls)
     electrons    :     12.77s CPU     12.83s WALL (       3 calls)

     Called by init_run:
     aceinit0     :      0.00s CPU      0.00s WALL (       1 calls)
     wfcinit      :      0.61s CPU      0.62s WALL (       1 calls)
     potinit      :      0.07s CPU      0.09s WALL (       1 calls)
     hinit0       :      0.17s CPU      0.18s WALL (       1 calls)

     Called by electrons:
     c_bands      :     11.10s CPU     11.12s WALL (       9 calls)
     sum_band     :      1.35s CPU      1.36s WALL (       9 calls)
     v_of_rho     :      0.35s CPU      0.38s WALL (      11 calls)
     mix_rho      :      0.03s CPU      0.03s WALL (       9 calls)

     Called by c_bands:
     init_us_2    :      0.24s CPU      0.25s WALL (     380 calls)
     init_us_2:cp :      0.24s CPU      0.24s WALL (     380 calls)
     cegterg      :     10.85s CPU     10.87s WALL (     180 calls)

     Called by *egterg:
     cdiaghg      :      0.09s CPU      0.09s WALL (     833 calls)
     h_psi        :      8.74s CPU      8.77s WALL (     893 calls)
     g_psi        :      0.06s CPU      0.06s WALL (     693 calls)

     Called by h_psi:
     h_psi:calbec :      0.37s CPU      0.37s WALL (     893 calls)
     vloc_psi     :      7.62s CPU      7.64s WALL (     893 calls)
     add_vuspsi   :      0.36s CPU      0.36s WALL (     893 calls)

     General routines
     calbec       :      0.65s CPU      0.66s WALL (    1500 calls)
     fft          :      0.20s CPU      0.21s WALL (     105 calls)
     ffts         :      0.01s CPU      0.01s WALL (       9 calls)
     fftw         :      7.66s CPU      7.69s WALL (   10548 calls)
     fftc         :     25.96s CPU     26.13s WALL (   30720 calls)
     fftcw        :      0.99s CPU      1.12s WALL (    1440 calls)

     Parallel routines

     EXX routines
     exx_grid     :      0.00s CPU      0.00s WALL (       1 calls)
     exxinit      :      1.36s CPU      1.64s WALL (       3 calls)
     vexx         :     38.33s CPU     39.53s WALL (      60 calls)
     matcalc      :      0.29s CPU      0.30s WALL (     607 calls)
     aceupdate    :      0.01s CPU      0.02s WALL (      60 calls)
     vexxace      :      0.50s CPU      0.51s WALL (     447 calls)
     aceinit      :     38.37s CPU     39.59s WALL (      60 calls)

     PWSCF        :     53.65s CPU     55.32s WALL


   This run was terminated on:   2:26:56   2Jun2023            

=------------------------------------------------------------------------------=
   JOB DONE.
=------------------------------------------------------------------------------=
