
     Program PWSCF v.7.2 starts on  1Jun2023 at  2:18:37 

     This program is part of the open-source Quantum ESPRESSO suite
     for quantum simulation of materials; please cite
         "P. Giannozzi et al., J. Phys.:Condens. Matter 21 395502 (2009);
         "P. Giannozzi et al., J. Phys.:Condens. Matter 29 465901 (2017);
         "P. Giannozzi et al., J. Chem. Phys. 152 154105 (2020);
          URL http://www.quantum-espresso.org", 
     in publications or presentations arising from this work. More details at
     http://www.quantum-espresso.org/quote

     Parallel version (MPI), running on     1 processors

     MPI processes distributed on     1 nodes
     616 MiB available memory on the printing compute node when the environment starts

     Waiting for input...
     Reading input from standard input

     Current dimensions of program PWSCF are:
     Max number of different atomic species (ntypx) = 10
     Max number of k-points (npk) =  40000
     Max angular momentum in pseudopotentials (lmaxx) =  4
     file Si.pbe-n-kjpaw_psl.1.0.0.UPF: wavefunction(s)  3S 3P renormalized

     IMPORTANT: XC functional enforced from input :
     Exchange-correlation= GAUPBE
                           (   1   4  20   4   0   0   0)
     EXX-fraction              =        0.24
     Any further DFT definition will be discarded
     Please, verify this is what you really want

     Message from routine set_cutoff:
     ecutrho < 4*ecutwfc, are you sure?
     Message from routine setup :
     BEWARE: nonlinear core correction is not consistent with hybrid XC
     Message from routine setup:
     Warning: ecutfock not valid for US/PAW, ignored

     Subspace diagonalization in iterative solution of the eigenvalue problem:
     a serial algorithm will be used

     EXX: q-point mesh:     2    2    2
     EXX: setup a grid of 96 q-points centered on each k-point
     (k+q)-points:
   0.0000000   0.0000000   0.0000000         1    1
   0.5000000  -0.5000000   0.5000000         4    1
  -0.5000000  -0.5000000  -0.5000000         4    3
   0.0000000  -1.0000000   0.0000000        13    1
   0.5000000   0.5000000  -0.5000000         4    4
  -1.0000000   0.0000000   0.0000000        13    5
   0.0000000   0.0000000  -1.0000000        13   13
  -0.5000000   0.5000000   0.5000000         4    2
  -0.1666667   0.1666667  -0.1666667         2    1
   0.3333333  -0.3333333   0.3333333         3   -1
  -0.6666667  -0.3333333  -0.6666667         7    3
   0.8333333   0.1666667   0.8333333        11   -3
   0.3333333   0.6666667  -0.6666667         7   -8
  -0.1666667  -0.8333333   0.8333333        11    8
   0.8333333  -0.8333333  -0.1666667        11   15
  -0.6666667   0.6666667   0.3333333         7  -15
  -0.3333333   0.3333333  -0.3333333         3    1
   0.1666667  -0.1666667   0.1666667         2   -1
  -0.8333333  -0.1666667  -0.8333333        11    3
   0.6666667   0.3333333   0.6666667         7   -3
   0.1666667   0.8333333  -0.8333333        11   -8
  -0.3333333  -0.6666667   0.6666667         7    8
   0.6666667  -0.6666667  -0.3333333         7   15
  -0.8333333   0.8333333   0.1666667        11  -15
   0.0000000   0.3333333   0.0000000         5    1
   0.5000000  -0.1666667   0.5000000         8    1
  -0.5000000  -0.1666667  -0.5000000         8    3
   0.0000000  -0.6666667   0.0000000        10   -1
  -0.5000000  -0.1666667   0.5000000         8   -4
   1.0000000   0.3333333   0.0000000        16   -5
   0.0000000   0.3333333   1.0000000        16  -17
   0.5000000  -0.1666667  -0.5000000         8   -2
  -0.1666667   0.5000000  -0.1666667         6    1
   0.3333333   0.0000000   0.3333333         9    1
  -0.6666667   0.0000000  -0.6666667        12   -1
  -0.1666667  -0.5000000  -0.1666667         6   -3
   0.3333333  -1.0000000  -0.6666667        14  -21
  -0.1666667  -0.5000000   0.8333333        15    8
  -0.1666667   0.5000000   0.8333333        15   -6
  -0.6666667  -1.0000000   0.3333333        14   14
   0.6666667  -0.3333333   0.6666667         7    1
   0.1666667   0.1666667   0.1666667         2    3
  -0.8333333   0.1666667  -0.8333333        11   -1
  -0.3333333  -0.3333333  -0.3333333         3   -3
   0.1666667  -0.8333333  -0.8333333        11    6
   0.6666667   0.6666667  -0.3333333         7  -14
  -0.3333333   0.6666667   0.6666667         7   -6
  -0.8333333  -0.8333333   0.1666667        11   14
   0.0000000   0.6666667   0.0000000        10    1
   0.5000000   0.1666667   0.5000000         8   -3
  -0.5000000   0.1666667  -0.5000000         8   -1
   0.0000000  -0.3333333   0.0000000         5   -1
  -0.5000000   0.1666667   0.5000000         8    2
   0.0000000  -0.3333333  -1.0000000        16   17
  -1.0000000  -0.3333333   0.0000000        16    5
   0.5000000   0.1666667  -0.5000000         8    4
   0.8333333  -0.1666667   0.8333333        11    1
   0.3333333   0.3333333   0.3333333         3    3
  -0.6666667   0.3333333  -0.6666667         7   -1
  -0.1666667  -0.1666667  -0.1666667         2   -3
   0.3333333  -0.6666667  -0.6666667         7    6
   0.8333333   0.8333333  -0.1666667        11  -14
  -0.1666667   0.8333333   0.8333333        11   -6
  -0.6666667  -0.6666667   0.3333333         7   14
   0.6666667   0.0000000   0.6666667        12    1
   0.1666667   0.5000000   0.1666667         6    3
   0.1666667  -0.5000000   0.1666667         6   -1
  -0.3333333   0.0000000  -0.3333333         9   -1
   0.1666667  -0.5000000  -0.8333333        15    6
   0.6666667   1.0000000  -0.3333333        14  -14
  -0.3333333   1.0000000   0.6666667        14   21
   0.1666667   0.5000000  -0.8333333        15   -8
   0.6666667  -0.3333333   1.0000000        14    1
   0.1666667   0.1666667   0.5000000         6  -16
  -0.8333333   0.1666667  -0.5000000        15   10
  -0.3333333  -0.3333333   0.0000000         9   14
  -0.8333333   0.1666667   0.5000000        15  -12
   0.6666667   0.6666667   0.0000000        12  -14
  -0.3333333   0.6666667  -1.0000000        14    5
   0.1666667   0.1666667  -0.5000000         6   14
   0.5000000  -0.1666667   0.8333333        15    1
   0.0000000   0.3333333   0.3333333         9   -6
  -1.0000000   0.3333333  -0.6666667        14   10
  -0.5000000  -0.1666667  -0.1666667         6    7
   0.0000000  -0.6666667  -0.6666667        12    6
  -0.5000000  -0.1666667   0.8333333        15   -4
   0.5000000  -0.1666667  -0.1666667         6   -6
  -1.0000000  -0.6666667   0.3333333        14  -17
  -0.3333333  -1.0000000   0.0000000        16    1
   0.1666667   0.5000000   0.5000000         8    7
   0.1666667  -0.5000000   0.5000000         8   -5
  -0.3333333   0.0000000   0.0000000         5   -5
   0.1666667  -0.5000000  -0.5000000         8    6
  -0.3333333   0.0000000   1.0000000        16  -13
   0.6666667   0.0000000   0.0000000        10    5
   0.1666667   0.5000000  -0.5000000         8   -8

     G-vector sticks info
     --------------------
     sticks:   dense  smooth     PW     G-vecs:    dense   smooth      PW
     Sum         637     637    199                10417    10417    1837

     Using Slab Decomposition



     bravais-lattice index     =            2
     lattice parameter (alat)  =      10.2076  a.u.
     unit-cell volume          =     265.8955 (a.u.)^3
     number of atoms/cell      =            2
     number of atomic types    =            1
     number of electrons       =         8.00
     number of Kohn-Sham states=            8
     kinetic-energy cutoff     =      44.0000  Ry
     charge density cutoff     =     175.0000  Ry
     cutoff for Fock operator  =     175.0000  Ry
     scf convergence threshold =      1.0E-06
     mixing beta               =       0.7000
     number of iterations used =            8  plain     mixing
     Exchange-correlation= GAUPBE
                           (   1   4  20   4   0   0   0)
     EXX-fraction              =        0.24

     celldm(1)=  10.207600  celldm(2)=   0.000000  celldm(3)=   0.000000
     celldm(4)=   0.000000  celldm(5)=   0.000000  celldm(6)=   0.000000

     crystal axes: (cart. coord. in units of alat)
               a(1) = (  -0.500000   0.000000   0.500000 )  
               a(2) = (   0.000000   0.500000   0.500000 )  
               a(3) = (  -0.500000   0.500000   0.000000 )  

     reciprocal axes: (cart. coord. in units 2 pi/alat)
               b(1) = ( -1.000000 -1.000000  1.000000 )  
               b(2) = (  1.000000  1.000000  1.000000 )  
               b(3) = ( -1.000000  1.000000 -1.000000 )  


     PseudoPot. # 1 for Si read from file:
     ./Si.pbe-n-kjpaw_psl.1.0.0.UPF
     MD5 check sum: c39c59da582df4a0d9f10159256ea34e
     Pseudo is Projector augmented-wave + core cor, Zval =  4.0
     Generated using &quot;atomic&quot; code by A. Dal Corso  v.6.3
     Shape of augmentation charge: PSQ
     Using radial grid of 1141 points,  6 beta functions with: 
                l(1) =   0
                l(2) =   0
                l(3) =   1
                l(4) =   1
                l(5) =   2
                l(6) =   2
     Q(r) pseudized with 0 coefficients 


     atomic species   valence    mass     pseudopotential
        Si             4.00    28.08600     Si( 1.00)

     48 Sym. Ops., with inversion, found (24 have fractional translation)



   Cartesian axes

     site n.     atom                  positions (alat units)
         1           Si  tau(   1) = (   0.0000000   0.0000000   0.0000000  )
         2           Si  tau(   2) = (   0.2500000   0.2500000   0.2500000  )

     number of k points=    16
                       cart. coord. in units 2pi/alat
        k(    1) = (   0.0000000   0.0000000   0.0000000), wk =   0.0092593
        k(    2) = (  -0.1666667   0.1666667  -0.1666667), wk =   0.0740741
        k(    3) = (  -0.3333333   0.3333333  -0.3333333), wk =   0.0740741
        k(    4) = (   0.5000000  -0.5000000   0.5000000), wk =   0.0370370
        k(    5) = (   0.0000000   0.3333333   0.0000000), wk =   0.0555556
        k(    6) = (  -0.1666667   0.5000000  -0.1666667), wk =   0.2222222
        k(    7) = (   0.6666667  -0.3333333   0.6666667), wk =   0.2222222
        k(    8) = (   0.5000000  -0.1666667   0.5000000), wk =   0.2222222
        k(    9) = (   0.3333333   0.0000000   0.3333333), wk =   0.1111111
        k(   10) = (   0.0000000   0.6666667   0.0000000), wk =   0.0555556
        k(   11) = (   0.8333333  -0.1666667   0.8333333), wk =   0.2222222
        k(   12) = (   0.6666667  -0.0000000   0.6666667), wk =   0.1111111
        k(   13) = (   0.0000000  -1.0000000   0.0000000), wk =   0.0277778
        k(   14) = (   0.6666667  -0.3333333   1.0000000), wk =   0.2222222
        k(   15) = (   0.5000000  -0.1666667   0.8333333), wk =   0.2222222
        k(   16) = (  -0.3333333  -1.0000000   0.0000000), wk =   0.1111111

     Dense  grid:    10417 G-vectors     FFT dimensions: (  32,  32,  32)

     Estimated max dynamical RAM per process >     288.55 MB
     EXX: ACE will be initialized later

     Check: negative core charge=   -0.000001

     Initial potential from superposition of free atoms

     starting charge       7.9989, renormalised to       8.0000
     Starting wfcs are    8 randomized atomic wfcs

     total cpu time spent up to now is        1.2 secs

     Self-consistent Calculation

     iteration #  1     ecut=    44.00 Ry     beta= 0.70
     Davidson diagonalization with overlap
     ethr =  1.00E-02,  avg # of iterations =  3.6

     Threshold (ethr) on eigenvalues was too large:
     Diagonalizing with lowered threshold

     Davidson diagonalization with overlap
     ethr =  6.76E-04,  avg # of iterations =  2.2

     total cpu time spent up to now is        2.3 secs

     total energy              =     -93.44779203 Ry
     estimated scf accuracy    <       0.05821335 Ry

     iteration #  2     ecut=    44.00 Ry     beta= 0.70
     Davidson diagonalization with overlap
     ethr =  7.28E-04,  avg # of iterations =  1.5

     total cpu time spent up to now is        2.9 secs

     total energy              =     -93.45044382 Ry
     estimated scf accuracy    <       0.00225640 Ry

     iteration #  3     ecut=    44.00 Ry     beta= 0.70
     Davidson diagonalization with overlap
     ethr =  2.82E-05,  avg # of iterations =  3.9

     total cpu time spent up to now is        3.6 secs

     total energy              =     -93.45060486 Ry
     estimated scf accuracy    <       0.00005226 Ry

     iteration #  4     ecut=    44.00 Ry     beta= 0.70
     Davidson diagonalization with overlap
     ethr =  6.53E-07,  avg # of iterations =  3.4

     total cpu time spent up to now is        4.2 secs

     End of self-consistent calculation

          k = 0.0000 0.0000 0.0000 (  1363 PWs)   bands (ev):

    -5.6958   6.3815   6.3815   6.3815   8.9468   8.9468   8.9468   9.9274

          k =-0.1667 0.1667-0.1667 (  1321 PWs)   bands (ev):

    -5.3296   3.9848   5.9233   5.9233   8.7794   9.6041   9.6041  11.9746

          k =-0.3333 0.3333-0.3333 (  1326 PWs)   bands (ev):

    -4.2983   0.9944   5.3669   5.3669   8.1969   9.8878   9.8878  14.3111

          k = 0.5000-0.5000 0.5000 (  1308 PWs)   bands (ev):

    -3.3231  -0.6696   5.1670   5.1670   7.9720   9.7103   9.7103  14.1308

          k = 0.0000 0.3333 0.0000 (  1319 PWs)   bands (ev):

    -5.2050   4.3547   5.1658   5.1658   8.0761  10.7431  10.7593  10.7593

          k =-0.1667 0.5000-0.1667 (  1315 PWs)   bands (ev):

    -4.3778   1.9170   4.3631   4.6056   8.3406  10.4844  10.9290  11.4874

          k = 0.6667-0.3333 0.6667 (  1310 PWs)   bands (ev):

    -3.1640  -0.2904   3.5688   4.5770   8.4208  10.5391  11.0142  12.8466

          k = 0.5000-0.1667 0.5000 (  1315 PWs)   bands (ev):

    -3.5571   0.3204   3.2899   5.0651   8.8493  10.5357  10.6202  13.7517

          k = 0.3333 0.0000 0.3333 (  1313 PWs)   bands (ev):

    -4.7328   2.6467   3.9247   5.8102   9.4661   9.9540  10.2570  12.1109

          k = 0.0000 0.6667 0.0000 (  1299 PWs)   bands (ev):

    -3.7648   1.3530   3.9238   3.9238   7.0813   8.3464  13.7146  13.7146

          k = 0.8333-0.1667 0.8333 (  1314 PWs)   bands (ev):

    -2.5823  -0.2231   2.6839   3.7861   7.4157   9.0923  13.8863  13.9514

          k = 0.6667-0.0000 0.6667 (  1316 PWs)   bands (ev):

    -2.3788  -0.4354   1.8876   4.2358   7.9293  12.1994  12.9101  13.5430

          k = 0.0000-1.0000 0.0000 (  1298 PWs)   bands (ev):

    -1.4923  -1.4923   3.4835   3.4835   7.0555   7.0555  16.6224  16.6224

          k = 0.6667-0.3333 1.0000 (  1300 PWs)   bands (ev):

    -3.3724   0.7078   2.7491   4.0457   9.2394  10.0880  10.6615  13.5107

          k = 0.5000-0.1667 0.8333 (  1302 PWs)   bands (ev):

    -2.3681  -0.5137   2.3048   3.5686   9.7277   9.9680  12.5144  12.9627

          k =-0.3333-1.0000 0.0000 (  1312 PWs)   bands (ev):

    -1.3670  -1.3670   2.6694   2.6694   9.1261   9.1261  13.2034  13.2034

     highest occupied, lowest unoccupied level (ev):     6.3815    7.0555

!    total energy              =     -93.45061772 Ry
     estimated scf accuracy    <       0.00000033 Ry

     convergence has been achieved in   4 iterations

     Using ACE for calculation of exact exchange

     EXX grid:    10417 G-vectors     FFT dimensions: (  32,  32,  32)
     ACE projected onto     8 (nbndproj) and applied to     8 (nbnd) bands

     EXX: now go back to refine exchange calculation

     total cpu time spent up to now is      285.0 secs

     Self-consistent Calculation

     iteration #  1     ecut=    44.00 Ry     beta= 0.70
     Davidson diagonalization with overlap
     ethr =  6.53E-07,  avg # of iterations =  6.2

     total cpu time spent up to now is      286.0 secs

     total energy              =     -88.70164702 Ry
     estimated scf accuracy    <       0.00016471 Ry

     iteration #  2     ecut=    44.00 Ry     beta= 0.70
     Davidson diagonalization with overlap
     ethr =  2.06E-06,  avg # of iterations =  4.2

     total cpu time spent up to now is      287.0 secs

     total energy              =     -88.73620257 Ry
     estimated scf accuracy    <       0.00004964 Ry

     iteration #  3     ecut=    44.00 Ry     beta= 0.70
     Davidson diagonalization with overlap
     ethr =  6.21E-07,  avg # of iterations =  1.1

     total cpu time spent up to now is      287.7 secs

     total energy              =     -88.73613231 Ry
     estimated scf accuracy    <       0.00000204 Ry

     iteration #  4     ecut=    44.00 Ry     beta= 0.70
     Davidson diagonalization with overlap
     ethr =  2.55E-08,  avg # of iterations =  2.1

     total cpu time spent up to now is      288.4 secs

     End of self-consistent calculation

          k = 0.0000 0.0000 0.0000 (  1363 PWs)   bands (ev):

    -8.0334   5.6130   5.6130   5.6130   9.2659   9.2659   9.2659  10.5499

          k =-0.1667 0.1667-0.1667 (  1321 PWs)   bands (ev):

    -7.6243   3.1606   5.1549   5.1549   9.2027   9.9140   9.9140  12.6426

          k =-0.3333 0.3333-0.3333 (  1326 PWs)   bands (ev):

    -6.5278   0.0540   4.5810   4.5810   8.6017  10.2354  10.2355  15.0062

          k = 0.5000-0.5000 0.5000 (  1308 PWs)   bands (ev):

    -5.2960  -1.9938   4.3370   4.3370   8.3008  10.0934  10.0934  14.8445

          k = 0.0000 0.3333 0.0000 (  1319 PWs)   bands (ev):

    -7.4858   3.5992   4.3439   4.3439   8.3601  11.1625  11.1625  11.2471

          k =-0.1667 0.5000-0.1667 (  1315 PWs)   bands (ev):

    -6.5981   1.0135   3.6164   3.7627   8.6183  10.8855  11.3612  11.8961

          k = 0.6667-0.3333 0.6667 (  1310 PWs)   bands (ev):

    -5.1279  -1.5794   2.7603   3.7153   8.7358  10.9951  11.4060  13.2961

          k = 0.5000-0.1667 0.5000 (  1315 PWs)   bands (ev):

    -5.6256  -0.8341   2.4483   4.2721   9.2235  10.9715  10.9721  14.3193

          k = 0.3333 0.0000 0.3333 (  1313 PWs)   bands (ev):

    -6.9770   1.7653   3.1139   5.0642   9.8783  10.2321  10.6599  12.6390

          k = 0.0000 0.6667 0.0000 (  1299 PWs)   bands (ev):

    -5.9584   0.4722   3.0543   3.0543   7.3223   8.6984  14.2138  14.2139

          k = 0.8333-0.1667 0.8333 (  1314 PWs)   bands (ev):

    -4.5075  -1.5477   1.8644   2.8967   7.6868   9.4117  14.3710  14.5248

          k = 0.6667-0.0000 0.6667 (  1316 PWs)   bands (ev):

    -4.2350  -1.8653   1.1185   3.3877   8.2329  12.5828  13.3863  14.1141

          k = 0.0000-1.0000 0.0000 (  1298 PWs)   bands (ev):

    -3.1190  -3.1190   2.5620   2.5620   7.3177   7.3178  17.5554  17.5555

          k = 0.6667-0.3333 1.0000 (  1300 PWs)   bands (ev):

    -5.4284  -0.4762   1.9431   3.2539   9.5355  10.4332  11.0628  14.0336

          k = 0.5000-0.1667 0.8333 (  1302 PWs)   bands (ev):

    -4.1936  -1.9718   1.5124   2.7294  10.0615  10.3149  12.9198  13.4639

          k =-0.3333-1.0000 0.0000 (  1312 PWs)   bands (ev):

    -3.0100  -3.0100   1.8230   1.8230   9.4407   9.4408  13.6703  13.6704

     highest occupied, lowest unoccupied level (ev):     5.6130    7.3177

!    total energy              =     -88.73611498 Ry
     estimated scf accuracy    <       0.00000002 Ry

     convergence has been achieved in   4 iterations

     Using ACE for calculation of exact exchange
     ACE projected onto     8 (nbndproj) and applied to     8 (nbnd) bands

     total energy              =     -88.73631058 Ry
     Harris-Foulkes estimate   =     -88.73632848 Ry
     est. exchange err (dexx)  =       0.00019560 Ry
     - averaged Fock potential =       1.75804514 Ry
     + Fock energy (ACE)       =      -0.88165418 Ry

     EXX: now go back to refine exchange calculation

     total cpu time spent up to now is      554.1 secs

     Self-consistent Calculation

     iteration #  1     ecut=    44.00 Ry     beta= 0.70
     Davidson diagonalization with overlap
     ethr =  2.55E-08,  avg # of iterations =  3.8

     total cpu time spent up to now is      554.9 secs

     total energy              =     -88.73635405 Ry
     estimated scf accuracy    <       0.00000794 Ry

     iteration #  2     ecut=    44.00 Ry     beta= 0.70
     Davidson diagonalization with overlap
     ethr =  9.92E-08,  avg # of iterations =  1.0

     total cpu time spent up to now is      555.6 secs

     End of self-consistent calculation

          k = 0.0000 0.0000 0.0000 (  1363 PWs)   bands (ev):

    -8.0250   5.5770   5.5770   5.5770   9.2924   9.2924   9.2924  10.5686

          k =-0.1667 0.1667-0.1667 (  1321 PWs)   bands (ev):

    -7.6165   3.1560   5.1301   5.1301   9.2253   9.9311   9.9311  12.6527

          k =-0.3333 0.3333-0.3333 (  1326 PWs)   bands (ev):

    -6.5225   0.0552   4.5583   4.5583   8.6236  10.2552  10.2552  15.0205

          k = 0.5000-0.5000 0.5000 (  1308 PWs)   bands (ev):

    -5.3017  -1.9881   4.3133   4.3133   8.3192  10.1163  10.1163  14.8647

          k = 0.0000 0.3333 0.0000 (  1319 PWs)   bands (ev):

    -7.4781   3.5938   4.3287   4.3287   8.3819  11.1685  11.1685  11.2639

          k =-0.1667 0.5000-0.1667 (  1315 PWs)   bands (ev):

    -6.5918   1.0130   3.6092   3.7498   8.6371  10.8985  11.3672  11.9014

          k = 0.6667-0.3333 0.6667 (  1310 PWs)   bands (ev):

    -5.1279  -1.5783   2.7599   3.7007   8.7575  11.0008  11.4135  13.3030

          k = 0.5000-0.1667 0.5000 (  1315 PWs)   bands (ev):

    -5.6225  -0.8339   2.4486   4.2555   9.2431  10.9780  10.9829  14.3277

          k = 0.3333 0.0000 0.3333 (  1313 PWs)   bands (ev):

    -6.9697   1.7630   3.1086   5.0430   9.9014  10.2441  10.6652  12.6512

          k = 0.0000 0.6667 0.0000 (  1299 PWs)   bands (ev):

    -5.9540   0.4700   3.0441   3.0441   7.3439   8.7190  14.2162  14.2162

          k = 0.8333-0.1667 0.8333 (  1314 PWs)   bands (ev):

    -4.5076  -1.5525   1.8683   2.8859   7.7100   9.4217  14.3749  14.5299

          k = 0.6667-0.0000 0.6667 (  1316 PWs)   bands (ev):

    -4.2368  -1.8686   1.1280   3.3754   8.2557  12.5856  13.3972  14.1231

          k = 0.0000-1.0000 0.0000 (  1298 PWs)   bands (ev):

    -3.1270  -3.1270   2.5529   2.5529   7.3457   7.3457  17.5729  17.5729

          k = 0.6667-0.3333 1.0000 (  1300 PWs)   bands (ev):

    -5.4240  -0.4789   1.9465   3.2462   9.5458  10.4415  11.0728  14.0350

          k = 0.5000-0.1667 0.8333 (  1302 PWs)   bands (ev):

    -4.1939  -1.9730   1.5189   2.7253  10.0697  10.3248  12.9223  13.4734

          k =-0.3333-1.0000 0.0000 (  1312 PWs)   bands (ev):

    -3.0121  -3.0121   1.8259   1.8260   9.4504   9.4504  13.6762  13.6762

     highest occupied, lowest unoccupied level (ev):     5.5770    7.3439

!    total energy              =     -88.73636901 Ry
     estimated scf accuracy    <       0.00000017 Ry

     convergence has been achieved in   2 iterations

     Using ACE for calculation of exact exchange
     ACE projected onto     8 (nbndproj) and applied to     8 (nbnd) bands

     total energy              =     -88.73637377 Ry
     Harris-Foulkes estimate   =     -88.73635936 Ry
     est. exchange err (dexx)  =       0.00000476 Ry
     - averaged Fock potential =       1.76407448 Ry
     + Fock energy (ACE)       =      -0.88242506 Ry

     EXX: now go back to refine exchange calculation

     total cpu time spent up to now is      821.9 secs

     Self-consistent Calculation

     iteration #  1     ecut=    44.00 Ry     beta= 0.70
     Davidson diagonalization with overlap
     ethr =  9.92E-08,  avg # of iterations =  1.9

     Threshold (ethr) on eigenvalues was too large:
     Diagonalizing with lowered threshold

     Davidson diagonalization with overlap
     ethr =  2.34E-09,  avg # of iterations =  1.9

     total cpu time spent up to now is      823.0 secs

     End of self-consistent calculation

          k = 0.0000 0.0000 0.0000 (  1363 PWs)   bands (ev):

    -8.0241   5.5713   5.5713   5.5713   9.2966   9.2966   9.2966  10.5700

          k =-0.1667 0.1667-0.1667 (  1321 PWs)   bands (ev):

    -7.6158   3.1555   5.1263   5.1263   9.2274   9.9338   9.9338  12.6533

          k =-0.3333 0.3333-0.3333 (  1326 PWs)   bands (ev):

    -6.5218   0.0547   4.5548   4.5548   8.6256  10.2584  10.2584  15.0222

          k = 0.5000-0.5000 0.5000 (  1308 PWs)   bands (ev):

    -5.3027  -1.9876   4.3097   4.3097   8.3213  10.1200  10.1200  14.8675

          k = 0.0000 0.3333 0.0000 (  1319 PWs)   bands (ev):

    -7.4774   3.5927   4.3267   4.3267   8.3845  11.1690  11.1690  11.2660

          k =-0.1667 0.5000-0.1667 (  1315 PWs)   bands (ev):

    -6.5911   1.0122   3.6081   3.7479   8.6392  10.9005  11.3677  11.9022

          k = 0.6667-0.3333 0.6667 (  1310 PWs)   bands (ev):

    -5.1280  -1.5787   2.7599   3.6986   8.7602  11.0011  11.4149  13.3043

          k = 0.5000-0.1667 0.5000 (  1315 PWs)   bands (ev):

    -5.6221  -0.8345   2.4486   4.2530   9.2454  10.9783  10.9848  14.3288

          k = 0.3333 0.0000 0.3333 (  1313 PWs)   bands (ev):

    -6.9689   1.7621   3.1080   5.0396   9.9040  10.2462  10.6653  12.6529

          k = 0.0000 0.6667 0.0000 (  1299 PWs)   bands (ev):

    -5.9532   0.4686   3.0426   3.0426   7.3465   8.7214  14.2167  14.2167

          k = 0.8333-0.1667 0.8333 (  1314 PWs)   bands (ev):

    -4.5075  -1.5538   1.8688   2.8843   7.7129   9.4229  14.3761  14.5306

          k = 0.6667-0.0000 0.6667 (  1316 PWs)   bands (ev):

    -4.2372  -1.8692   1.1288   3.3735   8.2583  12.5858  13.3991  14.1244

          k = 0.0000-1.0000 0.0000 (  1298 PWs)   bands (ev):

    -3.1284  -3.1284   2.5517   2.5517   7.3496   7.3496  17.5754  17.5754

          k = 0.6667-0.3333 1.0000 (  1300 PWs)   bands (ev):

    -5.4234  -0.4799   1.9466   3.2450   9.5471  10.4426  11.0744  14.0352

          k = 0.5000-0.1667 0.8333 (  1302 PWs)   bands (ev):

    -4.1941  -1.9735   1.5194   2.7246  10.0706  10.3262  12.9227  13.4749

          k =-0.3333-1.0000 0.0000 (  1312 PWs)   bands (ev):

    -3.0126  -3.0126   1.8262   1.8262   9.4515   9.4515  13.6774  13.6774

     highest occupied, lowest unoccupied level (ev):     5.5713    7.3465

!    total energy              =     -88.73637724 Ry
     estimated scf accuracy    <       0.00000019 Ry

     convergence has been achieved in   1 iterations

     Using ACE for calculation of exact exchange
     ACE projected onto     8 (nbndproj) and applied to     8 (nbnd) bands

!!   total energy              =     -88.73637738 Ry
     Harris-Foulkes estimate   =     -88.73637463 Ry
     est. exchange err (dexx)  =       0.00000014 Ry
     - averaged Fock potential =       1.76497840 Ry
     + Fock energy (ACE)       =      -0.88255348 Ry

     EXX self-consistency reached

     init_run     :      0.96s CPU      0.99s WALL (       1 calls)
     electrons    :      9.01s CPU      9.07s WALL (       4 calls)

     Called by init_run:
     aceinit0     :      0.00s CPU      0.00s WALL (       1 calls)
     wfcinit      :      0.24s CPU      0.24s WALL (       1 calls)
     potinit      :      0.28s CPU      0.30s WALL (       1 calls)
     hinit0       :      0.38s CPU      0.38s WALL (       1 calls)

     Called by electrons:
     c_bands      :      4.54s CPU      4.58s WALL (      13 calls)
     sum_band     :      0.88s CPU      0.90s WALL (      13 calls)
     v_of_rho     :      0.18s CPU      0.18s WALL (      13 calls)
     newd         :      0.29s CPU      0.31s WALL (      12 calls)
     PAW_pot      :      3.74s CPU      3.76s WALL (      13 calls)
     mix_rho      :      0.01s CPU      0.01s WALL (      13 calls)

     Called by c_bands:
     init_us_2    :      0.38s CPU      0.40s WALL (    1008 calls)
     init_us_2:cp :      0.38s CPU      0.39s WALL (    1008 calls)
     cegterg      :      4.13s CPU      4.16s WALL (     208 calls)

     Called by *egterg:
     cdiaghg      :      0.07s CPU      0.07s WALL (     715 calls)
     h_psi        :      2.90s CPU      2.93s WALL (     811 calls)
     s_psi        :      0.50s CPU      0.51s WALL (     811 calls)
     g_psi        :      0.02s CPU      0.02s WALL (     587 calls)

     Called by h_psi:
     h_psi:calbec :      0.49s CPU      0.50s WALL (     811 calls)
     vloc_psi     :      1.72s CPU      1.73s WALL (     811 calls)
     add_vuspsi   :      0.50s CPU      0.51s WALL (     811 calls)

     General routines
     calbec       :      0.84s CPU      0.87s WALL (    1853 calls)
     fft          :      0.16s CPU      0.16s WALL (     139 calls)
     ffts         :      0.00s CPU      0.00s WALL (      13 calls)
     fftw         :      1.62s CPU      1.63s WALL (   11118 calls)
     fftc         :     14.44s CPU     14.72s WALL (   65536 calls)
     fftcw        :      0.22s CPU      0.23s WALL (    1536 calls)

     Parallel routines

     EXX routines
     exx_grid     :      0.00s CPU      0.00s WALL (       1 calls)
     exxinit      :     15.75s CPU     15.96s WALL (       4 calls)
     vexx         :   1058.74s CPU   1075.13s WALL (      64 calls)
     matcalc      :      0.14s CPU      0.16s WALL (     770 calls)
     aceupdate    :      0.01s CPU      0.01s WALL (      64 calls)
     vexxace      :      0.22s CPU      0.23s WALL (     594 calls)
     aceinit      :   1058.76s CPU   1075.17s WALL (      64 calls)

     EXX+US  routines
     becxx        :      0.00s CPU      0.00s WALL (       4 calls)
     addusxx      :    524.99s CPU    533.30s WALL (   32768 calls)
     newdxx       :    472.41s CPU    479.57s WALL (   32768 calls)
     qvan_init    :     16.44s CPU     16.71s WALL (     512 calls)
     nlxx_pot     :      0.24s CPU      0.26s WALL (     512 calls)

     EXX+PAW routines
     PAW_newdxx   :     17.86s CPU     18.22s WALL (   32768 calls)

     PWSCF        :  18m 5.12s CPU  18m21.86s WALL


   This run was terminated on:   2:36:59   1Jun2023            

=------------------------------------------------------------------------------=
   JOB DONE.
=------------------------------------------------------------------------------=
