
     Program PWSCF v.7.2 starts on  1Jun2023 at  0:20:43 

     This program is part of the open-source Quantum ESPRESSO suite
     for quantum simulation of materials; please cite
         "P. Giannozzi et al., J. Phys.:Condens. Matter 21 395502 (2009);
         "P. Giannozzi et al., J. Phys.:Condens. Matter 29 465901 (2017);
         "P. Giannozzi et al., J. Chem. Phys. 152 154105 (2020);
          URL http://www.quantum-espresso.org", 
     in publications or presentations arising from this work. More details at
     http://www.quantum-espresso.org/quote

     Parallel version (MPI), running on     1 processors

     MPI processes distributed on     1 nodes
     560 MiB available memory on the printing compute node when the environment starts

     Waiting for input...
     Reading input from standard input

     Current dimensions of program PWSCF are:
     Max number of different atomic species (ntypx) = 10
     Max number of k-points (npk) =  40000
     Max angular momentum in pseudopotentials (lmaxx) =  4
     file Si.rel-pbe-n-kjpaw_psl.1.0.0.UPF: wavefunction(s)  3S 3P 3P renormalized
     Message from routine set_cutoff:
     ecutrho < 4*ecutwfc, are you sure?

     Atomic positions and unit cell read from directory:
     ./tmp/silicon.save/


     Subspace diagonalization in iterative solution of the eigenvalue problem:
     a serial algorithm will be used


     G-vector sticks info
     --------------------
     sticks:   dense  smooth     PW     G-vecs:    dense   smooth      PW
     Sum         637     637    199                10417    10417    1807

     Using Slab Decomposition



     bravais-lattice index     =            2
     lattice parameter (alat)  =      10.2076  a.u.
     unit-cell volume          =     265.8955 (a.u.)^3
     number of atoms/cell      =            2
     number of atomic types    =            1
     number of electrons       =         8.00
     number of Kohn-Sham states=           30
     kinetic-energy cutoff     =      45.0000  Ry
     charge density cutoff     =     175.0000  Ry
     Exchange-correlation= SLA  PW   PBX  PBC
                           (   1   4   3   4   0   0   0)
     Non magnetic calculation with spin-orbit


     celldm(1)=  10.207600  celldm(2)=   0.000000  celldm(3)=   0.000000
     celldm(4)=   0.000000  celldm(5)=   0.000000  celldm(6)=   0.000000

     crystal axes: (cart. coord. in units of alat)
               a(1) = (  -0.500000   0.000000   0.500000 )  
               a(2) = (   0.000000   0.500000   0.500000 )  
               a(3) = (  -0.500000   0.500000   0.000000 )  

     reciprocal axes: (cart. coord. in units 2 pi/alat)
               b(1) = ( -1.000000 -1.000000  1.000000 )  
               b(2) = (  1.000000  1.000000  1.000000 )  
               b(3) = ( -1.000000  1.000000 -1.000000 )  


     PseudoPot. # 1 for Si read from file:
     ./Si.rel-pbe-n-kjpaw_psl.1.0.0.UPF
     MD5 check sum: d74f6caf6830ea4c2076867160cab1b0
     Pseudo is Projector augmented-wave + core cor, Zval =  4.0
     Generated using &quot;atomic&quot; code by A. Dal Corso  v.6.3
     Shape of augmentation charge: PSQ
     Using radial grid of 1141 points, 10 beta functions with: 
                l(1) =   0
                l(2) =   0
                l(3) =   1
                l(4) =   1
                l(5) =   1
                l(6) =   1
                l(7) =   2
                l(8) =   2
                l(9) =   2
               l(10) =   2
     Q(r) pseudized with 0 coefficients 


     atomic species   valence    mass     pseudopotential
        Si             4.00    28.08600     Si( 1.00)

     48 Sym. Ops., with inversion, found (24 have fractional translation)



   Cartesian axes

     site n.     atom                  positions (alat units)
         1           Si  tau(   1) = (   0.0000000   0.0000000   0.0000000  )
         2           Si  tau(   2) = (   0.2500000   0.2500000   0.2500000  )

     number of k points=    91
                       cart. coord. in units 2pi/alat
        k(    1) = (   0.5000000   0.5000000   0.5000000), wk =   0.0109890
        k(    2) = (   0.4750000   0.4750000   0.4750000), wk =   0.0109890
        k(    3) = (   0.4500000   0.4500000   0.4500000), wk =   0.0109890
        k(    4) = (   0.4250000   0.4250000   0.4250000), wk =   0.0109890
        k(    5) = (   0.4000000   0.4000000   0.4000000), wk =   0.0109890
        k(    6) = (   0.3750000   0.3750000   0.3750000), wk =   0.0109890
        k(    7) = (   0.3500000   0.3500000   0.3500000), wk =   0.0109890
        k(    8) = (   0.3250000   0.3250000   0.3250000), wk =   0.0109890
        k(    9) = (   0.3000000   0.3000000   0.3000000), wk =   0.0109890
        k(   10) = (   0.2750000   0.2750000   0.2750000), wk =   0.0109890
        k(   11) = (   0.2500000   0.2500000   0.2500000), wk =   0.0109890
        k(   12) = (   0.2250000   0.2250000   0.2250000), wk =   0.0109890
        k(   13) = (   0.2000000   0.2000000   0.2000000), wk =   0.0109890
        k(   14) = (   0.1750000   0.1750000   0.1750000), wk =   0.0109890
        k(   15) = (   0.1500000   0.1500000   0.1500000), wk =   0.0109890
        k(   16) = (   0.1250000   0.1250000   0.1250000), wk =   0.0109890
        k(   17) = (   0.1000000   0.1000000   0.1000000), wk =   0.0109890
        k(   18) = (   0.0750000   0.0750000   0.0750000), wk =   0.0109890
        k(   19) = (   0.0500000   0.0500000   0.0500000), wk =   0.0109890
        k(   20) = (   0.0250000   0.0250000   0.0250000), wk =   0.0109890
        k(   21) = (   0.0000000   0.0000000   0.0000000), wk =   0.0109890
        k(   22) = (   0.0333333   0.0000000   0.0000000), wk =   0.0109890
        k(   23) = (   0.0666667   0.0000000   0.0000000), wk =   0.0109890
        k(   24) = (   0.1000000   0.0000000   0.0000000), wk =   0.0109890
        k(   25) = (   0.1333333   0.0000000   0.0000000), wk =   0.0109890
        k(   26) = (   0.1666667   0.0000000   0.0000000), wk =   0.0109890
        k(   27) = (   0.2000000   0.0000000   0.0000000), wk =   0.0109890
        k(   28) = (   0.2333333   0.0000000   0.0000000), wk =   0.0109890
        k(   29) = (   0.2666667   0.0000000   0.0000000), wk =   0.0109890
        k(   30) = (   0.3000000   0.0000000   0.0000000), wk =   0.0109890
        k(   31) = (   0.3333333   0.0000000   0.0000000), wk =   0.0109890
        k(   32) = (   0.3666667   0.0000000   0.0000000), wk =   0.0109890
        k(   33) = (   0.4000000   0.0000000   0.0000000), wk =   0.0109890
        k(   34) = (   0.4333333   0.0000000   0.0000000), wk =   0.0109890
        k(   35) = (   0.4666667   0.0000000   0.0000000), wk =   0.0109890
        k(   36) = (   0.5000000   0.0000000   0.0000000), wk =   0.0109890
        k(   37) = (   0.5333333   0.0000000   0.0000000), wk =   0.0109890
        k(   38) = (   0.5666667   0.0000000   0.0000000), wk =   0.0109890
        k(   39) = (   0.6000000   0.0000000   0.0000000), wk =   0.0109890
        k(   40) = (   0.6333333   0.0000000   0.0000000), wk =   0.0109890
        k(   41) = (   0.6666667   0.0000000   0.0000000), wk =   0.0109890
        k(   42) = (   0.7000000   0.0000000   0.0000000), wk =   0.0109890
        k(   43) = (   0.7333333   0.0000000   0.0000000), wk =   0.0109890
        k(   44) = (   0.7666667   0.0000000   0.0000000), wk =   0.0109890
        k(   45) = (   0.8000000   0.0000000   0.0000000), wk =   0.0109890
        k(   46) = (   0.8333333   0.0000000   0.0000000), wk =   0.0109890
        k(   47) = (   0.8666667   0.0000000   0.0000000), wk =   0.0109890
        k(   48) = (   0.9000000   0.0000000   0.0000000), wk =   0.0109890
        k(   49) = (   0.9333333   0.0000000   0.0000000), wk =   0.0109890
        k(   50) = (   0.9666667   0.0000000   0.0000000), wk =   0.0109890
        k(   51) = (   1.0000000   0.0000000   0.0000000), wk =   0.0109890
        k(   52) = (   1.0000000   0.0250000   0.0250000), wk =   0.0109890
        k(   53) = (   1.0000000   0.0500000   0.0500000), wk =   0.0109890
        k(   54) = (   1.0000000   0.0750000   0.0750000), wk =   0.0109890
        k(   55) = (   1.0000000   0.1000000   0.1000000), wk =   0.0109890
        k(   56) = (   1.0000000   0.1250000   0.1250000), wk =   0.0109890
        k(   57) = (   1.0000000   0.1500000   0.1500000), wk =   0.0109890
        k(   58) = (   1.0000000   0.1750000   0.1750000), wk =   0.0109890
        k(   59) = (   1.0000000   0.2000000   0.2000000), wk =   0.0109890
        k(   60) = (   1.0000000   0.2250000   0.2250000), wk =   0.0109890
        k(   61) = (   1.0000000   0.2500000   0.2500000), wk =   0.0109890
        k(   62) = (   0.9666667   0.2416667   0.2416667), wk =   0.0109890
        k(   63) = (   0.9333333   0.2333333   0.2333333), wk =   0.0109890
        k(   64) = (   0.9000000   0.2250000   0.2250000), wk =   0.0109890
        k(   65) = (   0.8666667   0.2166667   0.2166667), wk =   0.0109890
        k(   66) = (   0.8333333   0.2083333   0.2083333), wk =   0.0109890
        k(   67) = (   0.8000000   0.2000000   0.2000000), wk =   0.0109890
        k(   68) = (   0.7666667   0.1916667   0.1916667), wk =   0.0109890
        k(   69) = (   0.7333333   0.1833333   0.1833333), wk =   0.0109890
        k(   70) = (   0.7000000   0.1750000   0.1750000), wk =   0.0109890
        k(   71) = (   0.6666667   0.1666667   0.1666667), wk =   0.0109890
        k(   72) = (   0.6333333   0.1583333   0.1583333), wk =   0.0109890
        k(   73) = (   0.6000000   0.1500000   0.1500000), wk =   0.0109890
        k(   74) = (   0.5666667   0.1416667   0.1416667), wk =   0.0109890
        k(   75) = (   0.5333333   0.1333333   0.1333333), wk =   0.0109890
        k(   76) = (   0.5000000   0.1250000   0.1250000), wk =   0.0109890
        k(   77) = (   0.4666667   0.1166667   0.1166667), wk =   0.0109890
        k(   78) = (   0.4333333   0.1083333   0.1083333), wk =   0.0109890
        k(   79) = (   0.4000000   0.1000000   0.1000000), wk =   0.0109890
        k(   80) = (   0.3666667   0.0916667   0.0916667), wk =   0.0109890
        k(   81) = (   0.3333333   0.0833333   0.0833333), wk =   0.0109890
        k(   82) = (   0.3000000   0.0750000   0.0750000), wk =   0.0109890
        k(   83) = (   0.2666667   0.0666667   0.0666667), wk =   0.0109890
        k(   84) = (   0.2333333   0.0583333   0.0583333), wk =   0.0109890
        k(   85) = (   0.2000000   0.0500000   0.0500000), wk =   0.0109890
        k(   86) = (   0.1666667   0.0416667   0.0416667), wk =   0.0109890
        k(   87) = (   0.1333333   0.0333333   0.0333333), wk =   0.0109890
        k(   88) = (   0.1000000   0.0250000   0.0250000), wk =   0.0109890
        k(   89) = (   0.0666667   0.0166667   0.0166667), wk =   0.0109890
        k(   90) = (   0.0333333   0.0083333   0.0083333), wk =   0.0109890
        k(   91) = (   0.0000000   0.0000000   0.0000000), wk =   0.0109890

     Dense  grid:    10417 G-vectors     FFT dimensions: (  32,  32,  32)

     Estimated max dynamical RAM per process >     110.77 MB

     Check: negative core charge=   -0.000001

     The potential is recalculated from file :
     ./tmp/silicon.save/charge-density

     Starting wfcs are   16 randomized atomic wfcs +   14 random wfcs
     Checking if some PAW data can be deallocated... 

     Band Structure Calculation
     Davidson diagonalization with overlap

     ethr =  1.25E-10,  avg # of iterations = 44.0

     total cpu time spent up to now is      273.0 secs

     End of band structure calculation

          k = 0.5000 0.5000 0.5000 (  1380 PWs)   bands (ev):

    -3.3289  -3.3289  -0.6743  -0.6743   5.1448   5.1448   5.1769   5.1769
     7.9668   7.9668   9.6995   9.6995   9.7138   9.7138  14.1293  14.1293
    16.9683  16.9683  16.9687  16.9687  17.8017  17.8017  17.8276  17.8276
    17.8738  17.8738  19.6112  19.6112  25.9053  25.9053

          k = 0.4750 0.4750 0.4750 (  1365 PWs)   bands (ev):

    -3.3654  -3.3654  -0.6222  -0.6222   5.1493   5.1493   5.1814   5.1814
     7.9720   7.9720   9.7049   9.7049   9.7193   9.7193  14.1376  14.1376
    16.7204  16.7204  16.7246  16.7246  17.7393  17.7393  18.0734  18.0734
    18.0903  18.0903  19.7333  19.7333  25.3894  25.3894

          k = 0.4500 0.4500 0.4500 (  1365 PWs)   bands (ev):

    -3.4667  -3.4667  -0.4740  -0.4740   5.1629   5.1629   5.1950   5.1950
     7.9874   7.9874   9.7208   9.7208   9.7354   9.7354  14.1621  14.1621
    16.2860  16.2860  16.2926  16.2926  17.4281  17.4281  18.5632  18.5632
    18.5781  18.5781  20.0178  20.0178  24.6869  24.6869

          k = 0.4250 0.4250 0.4250 (  1362 PWs)   bands (ev):

    -3.6149  -3.6149  -0.2478  -0.2478   5.1855   5.1855   5.2175   5.2175
     8.0131   8.0131   9.7460   9.7460   9.7610   9.7610  14.2006  14.2006
    15.8356  15.8356  15.8430  15.8430  17.0372  17.0372  19.1056  19.1056
    19.1194  19.1194  20.3403  20.3403  24.0321  24.0321

          k = 0.4000 0.4000 0.4000 (  1362 PWs)   bands (ev):

    -3.7912  -3.7912   0.0375   0.0375   5.2171   5.2171   5.2491   5.2491
     8.0489   8.0489   9.7786   9.7786   9.7940   9.7940  14.2487  14.2487
    15.4002  15.4002  15.4078  15.4078  16.6204  16.6204  19.6663  19.6663
    19.6794  19.6794  20.5943  20.5943  23.4989  23.4989

          k = 0.3750 0.3750 0.3750 (  1362 PWs)   bands (ev):

    -3.9814  -3.9814   0.3672   0.3672   5.2576   5.2576   5.2896   5.2896
     8.0945   8.0945   9.8155   9.8155   9.8316   9.8316  14.2966  14.2966
    14.9908  14.9908  14.9981  14.9981  16.2075  16.2075  20.2276  20.2276
    20.2402  20.2402  20.6519  20.6519  23.1995  23.1995

          k = 0.3500 0.3500 0.3500 (  1359 PWs)   bands (ev):

    -4.1754  -4.1754   0.7311   0.7311   5.3070   5.3070   5.3389   5.3389
     8.1498   8.1498   9.8527   9.8527   9.8696   9.8696  14.3233  14.3233
    14.6144  14.6144  14.6211  14.6211  15.8275  15.8275  20.4229  20.4229
    20.7652  20.7652  20.7769  20.7769  23.2155  23.2155

          k = 0.3250 0.3250 0.3250 (  1359 PWs)   bands (ev):

    -4.3669  -4.3669   1.1223   1.1223   5.3651   5.3651   5.3969   5.3969
     8.2144   8.2144   9.8848   9.8848   9.9027   9.9027  14.2765  14.2765
    14.2838  14.2838  14.2842  14.2842  15.5288  15.5288  19.9780  19.9780
    21.2246  21.2246  21.2355  21.2355  23.4712  23.4712

          k = 0.3000 0.3000 0.3000 (  1359 PWs)   bands (ev):

    -4.5516  -4.5516   1.5357   1.5357   5.4315   5.4315   5.4633   5.4633
     8.2876   8.2876   9.9051   9.9051   9.9241   9.9241  13.9883  13.9883
    13.9934  13.9934  14.1135  14.1135  15.3725  15.3725  19.4369  19.4369
    21.4882  21.4882  21.4975  21.4975  23.8129  23.8129

          k = 0.2750 0.2750 0.2750 (  1357 PWs)   bands (ev):

    -4.7266  -4.7266   1.9676   1.9676   5.5060   5.5060   5.5377   5.5377
     8.3687   8.3687   9.9063   9.9063   9.9266   9.9266  13.7535  13.7535
    13.7576  13.7576  13.8098  13.8098  15.3602  15.3602  18.8723  18.8723
    21.4283  21.4283  21.4359  21.4359  23.9466  23.9466

          k = 0.2500 0.2500 0.2500 (  1363 PWs)   bands (ev):

    -4.8899  -4.8899   2.4149   2.4149   5.5880   5.5880   5.6196   5.6196
     8.4565   8.4565   9.8817   9.8817   9.9032   9.9032  13.4262  13.4262
    13.5802  13.5802  13.5832  13.5832  15.4293  15.4293  18.3242  18.3242
    21.1079  21.1079  21.1147  21.1147  24.3700  24.3700

          k = 0.2250 0.2250 0.2250 (  1357 PWs)   bands (ev):

    -5.0401  -5.0401   2.8748   2.8748   5.6765   5.6765   5.7081   5.7081
     8.5497   8.5497   9.8268   9.8268   9.8493   9.8493  13.0048  13.0048
    13.4724  13.4724  13.4745  13.4745  15.5225  15.5225  17.8244  17.8244
    20.6731  20.6731  20.6795  20.6795  24.6213  24.6213

          k = 0.2000 0.2000 0.2000 (  1369 PWs)   bands (ev):

    -5.1763  -5.1763   3.3443   3.3443   5.7704   5.7704   5.8020   5.8020
     8.6461   8.6461   9.7413   9.7413   9.7645   9.7645  12.5653  12.5653
    13.4299  13.4299  13.4312  13.4312  15.5895  15.5895  17.4130  17.4130
    20.2034  20.2034  20.2098  20.2098  24.3982  24.3982

          k = 0.1750 0.1750 0.1750 (  1363 PWs)   bands (ev):

    -5.2977  -5.2977   3.8197   3.8197   5.8681   5.8681   5.8996   5.8996
     8.7428   8.7428   9.6295   9.6295   9.6532   9.6532  12.1178  12.1178
    13.4473  13.4473  13.4481  13.4481  15.5710  15.5710  17.1466  17.1466
    19.7336  19.7336  19.7400  19.7400  24.0041  24.0041

          k = 0.1500 0.1500 0.1500 (  1360 PWs)   bands (ev):

    -5.4037  -5.4037   4.2966   4.2966   5.9672   5.9672   5.9988   5.9988
     8.8358   8.8358   9.4998   9.4998   9.5237   9.5237  11.6697  11.6697
    13.5148  13.5148  13.5153  13.5153  15.4279  15.4279  17.0632  17.0632
    19.2815  19.2815  19.2879  19.2879  23.5631  23.5631

          k = 0.1250 0.1250 0.1250 (  1366 PWs)   bands (ev):

    -5.4940  -5.4940   4.7685   4.7685   6.0648   6.0648   6.0965   6.0965
     8.9191   8.9191   9.3624   9.3624   9.3862   9.3862  11.2300  11.2300
    13.6195  13.6195  13.6198  13.6198  15.1970  15.1970  17.1246  17.1246
    18.8596  18.8596  18.8661  18.8661  23.1296  23.1296

          k = 0.1000 0.1000 0.1000 (  1369 PWs)   bands (ev):

    -5.5682  -5.5682   5.2253   5.2253   6.1568   6.1568   6.1885   6.1885
     8.9841   8.9841   9.2287   9.2287   9.2521   9.2521  10.8126  10.8126
    13.7464  13.7464  13.7466  13.7466  14.9464  14.9464  17.2592  17.2592
    18.4797  18.4797  18.4863  18.4863  22.7307  22.7307

          k = 0.0750 0.0750 0.0750 (  1375 PWs)   bands (ev):

    -5.6262  -5.6262   5.6506   5.6506   6.2383   6.2383   6.2697   6.2697
     9.0177   9.0177   9.1103   9.1103   9.1322   9.1322  10.4413  10.4413
    13.8782  13.8782  13.8783  13.8783  14.7220  14.7220  17.4144  17.4144
    18.1552  18.1552  18.1620  18.1620  22.3870  22.3870

          k = 0.0500 0.0500 0.0500 (  1369 PWs)   bands (ev):

    -5.6677  -5.6677   6.0157   6.0157   6.3036   6.3036   6.3343   6.3343
     8.9981   8.9981   9.0271   9.0271   9.0371   9.0371  10.1514  10.1514
    13.9954  13.9954  13.9955  13.9955  14.5486  14.5486  17.5546  17.5546
    17.9026  17.9026  17.9095  17.9095  22.1184  22.1184

          k = 0.0250 0.0250 0.0250 (  1363 PWs)   bands (ev):

    -5.6926  -5.6926   6.2710   6.2710   6.3506   6.3506   6.3762   6.3762
     8.9427   8.9427   8.9757   8.9757   8.9788   8.9788   9.9763   9.9763
    14.0774  14.0774  14.0775  14.0775  14.4398  14.4398  17.6520  17.6520
    17.7404  17.7404  17.7472  17.7472  21.9456  21.9456

          k = 0.0000 0.0000 0.0000 (  1363 PWs)   bands (ev):

    -5.7009  -5.7009   6.3424   6.3424   6.3908   6.3908   6.3908   6.3908
     8.9194   8.9194   8.9544   8.9544   8.9544   8.9544   9.9206   9.9206
    14.1071  14.1071  14.1071  14.1071  14.4028  14.4028  17.6803  17.6803
    17.6910  17.6910  17.6910  17.6910  21.8858  21.8858

          k = 0.0333 0.0000 0.0000 (  1363 PWs)   bands (ev):

    -5.6960  -5.6960   6.3169   6.3169   6.3623   6.3623   6.3688   6.3688
     8.9230   8.9230   8.9665   8.9665   8.9819   8.9819   9.9526   9.9526
    14.0663  14.0663  14.1126  14.1126  14.4248  14.4248  17.6914  17.6914
    17.6995  17.6995  17.7171  17.7171  21.9216  21.9216

          k = 0.0667 0.0000 0.0000 (  1371 PWs)   bands (ev):

    -5.6812  -5.6812   6.2358   6.2358   6.2876   6.2876   6.3057   6.3057
     8.8925   8.8925   9.0421   9.0421   9.0615   9.0615  10.0442  10.0442
    13.9504  13.9504  14.1289  14.1289  14.4901  14.4901  17.7177  17.7177
    17.7251  17.7251  17.7972  17.7972  22.0283  22.0283

          k = 0.1000 0.0000 0.0000 (  1371 PWs)   bands (ev):

    -5.6566  -5.6566   6.0956   6.0956   6.1860   6.1860   6.2087   6.2087
     8.8352   8.8352   9.1684   9.1684   9.1865   9.1865  10.1844  10.1844
    13.7755  13.7755  14.1561  14.1561  14.5968  14.5968  17.7605  17.7605
    17.7676  17.7676  17.9177  17.9177  22.2040  22.2040

          k = 0.1333 0.0000 0.0000 (  1371 PWs)   bands (ev):

    -5.6221  -5.6221   5.9095   5.9095   6.0637   6.0637   6.0865   6.0865
     8.7580   8.7580   9.3327   9.3327   9.3486   9.3486  10.3577  10.3577
    13.5632  13.5632  14.1942  14.1942  14.7420  14.7420  17.8202  17.8202
    17.8271  17.8271  18.0642  18.0642  22.4451  22.4451

          k = 0.1667 0.0000 0.0000 (  1375 PWs)   bands (ev):

    -5.5778  -5.5778   5.6905   5.6905   5.9255   5.9255   5.9469   5.9469
     8.6647   8.6647   9.5264   9.5264   9.5398   9.5398  10.5456  10.5456
    13.3372  13.3372  14.2433  14.2433  14.9222  14.9222  17.8967  17.8967
    17.9034  17.9034  18.2256  18.2256  22.7466  22.7466

          k = 0.2000 0.0000 0.0000 (  1371 PWs)   bands (ev):

    -5.5237  -5.5237   5.4479   5.4479   5.7768   5.7768   5.7966   5.7966
     8.5588   8.5588   9.7428   9.7428   9.7539   9.7539  10.7251  10.7251
    13.1247  13.1247  14.3031  14.3031  15.1338  15.1338  17.9899  17.9899
    17.9965  17.9965  18.3947  18.3947  23.1021  23.1021

          k = 0.2333 0.0000 0.0000 (  1355 PWs)   bands (ev):

    -5.4598  -5.4598   5.1882   5.1882   5.6223   5.6223   5.6403   5.6403
     8.4437   8.4437   9.9768   9.9768   9.9858   9.9858  10.8646  10.8646
    12.9603  12.9603  14.3739  14.3739  15.3731  15.3731  18.0996  18.0996
    18.1060  18.1060  18.5681  18.5681  23.5044  23.5044

          k = 0.2667 0.0000 0.0000 (  1355 PWs)   bands (ev):

    -5.3863  -5.3863   4.9163   4.9163   5.4652   5.4652   5.4816   5.4816
     8.3225   8.3225  10.2248  10.2248  10.2318  10.2318  10.9256  10.9256
    12.8849  12.8849  14.4556  14.4556  15.6368  15.6368  18.2254  18.2254
    18.2316  18.2316  18.7451  18.7451  23.9458  23.9458

          k = 0.3000 0.0000 0.0000 (  1355 PWs)   bands (ev):

    -5.3030  -5.3030   4.6353   4.6353   5.3082   5.3082   5.3232   5.3232
     8.1980   8.1980  10.4840  10.4840  10.4892  10.4892  10.8809  10.8809
    12.9275  12.9275  14.5480  14.5480  15.9216  15.9216  18.3668  18.3668
    18.3728  18.3728  18.9261  18.9261  24.4186  24.4186

          k = 0.3333 0.0000 0.0000 (  1351 PWs)   bands (ev):

    -5.2102  -5.2102   4.3477   4.3477   5.1533   5.1533   5.1669   5.1669
     8.0724   8.0724  10.7360  10.7360  10.7523  10.7523  10.7586  10.7586
    13.0810  13.0810  14.6514  14.6514  16.2248  16.2248  18.5231  18.5231
    18.5289  18.5289  19.1126  19.1126  24.9150  24.9150

          k = 0.3667 0.0000 0.0000 (  1351 PWs)   bands (ev):

    -5.1078  -5.1078   4.0552   4.0552   5.0018   5.0018   5.0142   5.0142
     7.9478   7.9478  10.5310  10.5310  11.0281  11.0281  11.0304  11.0304
    13.3143  13.3143  14.7656  14.7656  16.5436  16.5436  18.6930  18.6930
    18.6987  18.6987  19.3060  19.3060  25.4272  25.4272

          k = 0.4000 0.0000 0.0000 (  1351 PWs)   bands (ev):

    -4.9959  -4.9959   3.7591   3.7591   4.8548   4.8548   4.8661   4.8661
     7.8258   7.8258  10.2881  10.2881  11.3101  11.3101  11.3110  11.3110
    13.5980  13.5980  14.8906  14.8906  16.8753  16.8753  18.8750  18.8750
    18.8805  18.8805  19.5080  19.5080  25.1365  25.1365

          k = 0.4333 0.0000 0.0000 (  1351 PWs)   bands (ev):

    -4.8746  -4.8746   3.4603   3.4603   4.7133   4.7133   4.7236   4.7236
     7.7079   7.7079  10.0291  10.0291  11.5971  11.5971  11.5975  11.5975
    13.9132  13.9132  15.0264  15.0264  17.2175  17.2175  19.0665  19.0665
    19.0718  19.0718  19.7201  19.7201  24.7180  24.7180

          k = 0.4667 0.0000 0.0000 (  1355 PWs)   bands (ev):

    -4.7439  -4.7439   3.1596   3.1596   4.5778   4.5778   4.5872   4.5872
     7.5953   7.5953   9.7656   9.7656  11.8880  11.8880  11.8895  11.8895
    14.2483  14.2483  15.1730  15.1730  17.5673  17.5673  19.2636  19.2636
    19.2687  19.2687  19.9436  19.9436  24.3172  24.3172

          k = 0.5000 0.0000 0.0000 (  1355 PWs)   bands (ev):

    -4.6041  -4.6041   2.8576   2.8576   4.4489   4.4489   4.4575   4.4575
     7.4889   7.4889   9.5045   9.5045  12.1829  12.1829  12.1855  12.1855
    14.5962  14.5962  15.3304  15.3304  17.9217  17.9217  19.4603  19.4603
    19.4654  19.4654  20.1798  20.1798  23.9405  23.9405

          k = 0.5333 0.0000 0.0000 (  1351 PWs)   bands (ev):

    -4.4551  -4.4551   2.5550   2.5550   4.3270   4.3270   4.3348   4.3348
     7.3897   7.3897   9.2502   9.2502  12.4814  12.4814  12.4850  12.4850
    14.9522  14.9522  15.4986  15.4986  18.2773  18.2773  19.6475  19.6475
    19.6525  19.6525  20.4297  20.4297  23.5978  23.5978

          k = 0.5667 0.0000 0.0000 (  1351 PWs)   bands (ev):

    -4.2971  -4.2971   2.2521   2.2521   4.2126   4.2126   4.2196   4.2196
     7.2984   7.2984   9.0053   9.0053  12.7831  12.7831  12.7877  12.7877
    15.3132  15.3132  15.6774  15.6774  18.6296  18.6296  19.8108  19.8108
    19.8156  19.8156  20.6942  20.6942  23.3038  23.3038

          k = 0.6000 0.0000 0.0000 (  1355 PWs)   bands (ev):

    -4.1302  -4.1302   1.9494   1.9494   4.1057   4.1057   4.1121   4.1121
     7.2157   7.2157   8.7719   8.7719  13.0878  13.0878  13.0932  13.0932
    15.6765  15.6765  15.8670  15.8670  18.9733  18.9733  19.9298  19.9298
    19.9340  19.9340  20.9740  20.9740  23.0791  23.0791

          k = 0.6333 0.0000 0.0000 (  1347 PWs)   bands (ev):

    -3.9545  -3.9545   1.6474   1.6474   4.0068   4.0068   4.0125   4.0125
     7.1421   7.1421   8.5510   8.5510  13.3953  13.3953  13.4015  13.4015
    16.0402  16.0402  16.0673  16.0673  19.3017  19.3017  19.9798  19.9798
    19.9829  19.9829  21.2698  21.2698  22.9489  22.9489

          k = 0.6667 0.0000 0.0000 (  1347 PWs)   bands (ev):

    -3.7702  -3.7702   1.3466   1.3466   3.9159   3.9159   3.9210   3.9210
     7.0781   7.0781   8.3436   8.3436  13.7053  13.7053  13.7122  13.7122
    16.2783  16.2783  16.4025  16.4025  19.6059  19.6059  19.9414  19.9414
    19.9427  19.9427  21.5819  21.5819  22.6571  22.6571

          k = 0.7000 0.0000 0.0000 (  1351 PWs)   bands (ev):

    -3.5775  -3.5775   1.0475   1.0475   3.8333   3.8333   3.8379   3.8379
     7.0241   7.0241   8.1501   8.1501  14.0178  14.0178  14.0252  14.0252
    16.4999  16.4999  16.7620  16.7620  19.8099  19.8099  19.8122  19.8122
    19.8773  19.8773  21.9104  21.9104  22.2461  22.2461

          k = 0.7333 0.0000 0.0000 (  1359 PWs)   bands (ev):

    -3.3766  -3.3766   0.7503   0.7503   3.7591   3.7591   3.7631   3.7631
     6.9807   6.9807   7.9709   7.9709  14.3325  14.3325  14.3404  14.3404
    16.7321  16.7321  17.1172  17.1172  19.6047  19.6047  19.6081  19.6081
    20.0994  20.0994  21.8440  21.8440  22.2553  22.2553

          k = 0.7667 0.0000 0.0000 (  1359 PWs)   bands (ev):

    -3.1675  -3.1675   0.4557   0.4557   3.6935   3.6935   3.6969   3.6969
     6.9482   6.9482   7.8061   7.8061  14.6492  14.6492  14.6576  14.6576
    16.9748  16.9748  17.4669  17.4669  19.3460  19.3460  19.3511  19.3511
    20.2639  20.2639  21.4509  21.4509  22.6160  22.6160

          k = 0.8000 0.0000 0.0000 (  1351 PWs)   bands (ev):

    -2.9507  -2.9507   0.1642   0.1642   3.6364   3.6364   3.6393   3.6393
     6.9269   6.9269   7.6558   7.6558  14.9675  14.9675  14.9763  14.9763
    17.2281  17.2281  17.8099  17.8099  19.0543  19.0543  19.0607  19.0607
    20.3602  20.3602  21.0670  21.0670  22.9915  22.9915

          k = 0.8333 0.0000 0.0000 (  1351 PWs)   bands (ev):

    -2.7261  -2.7261  -0.1240  -0.1240   3.5880   3.5880   3.5904   3.5904
     6.9171   6.9171   7.5200   7.5200  15.2867  15.2867  15.2958  15.2958
    17.4919  17.4919  18.1446  18.1446  18.7435  18.7435  18.7510  18.7510
    20.3841  20.3841  20.6925  20.6925  23.3804  23.3804

          k = 0.8667 0.0000 0.0000 (  1347 PWs)   bands (ev):

    -2.4942  -2.4942  -0.4083  -0.4083   3.5484   3.5484   3.5503   3.5503
     6.9193   6.9193   7.3985   7.3985  15.6054  15.6054  15.6146  15.6146
    17.7660  17.7660  18.4238  18.4238  18.4304  18.4304  18.4713  18.4713
    20.3275  20.3275  20.3379  20.3379  23.7799  23.7799

          k = 0.9000 0.0000 0.0000 (  1346 PWs)   bands (ev):

    -2.2551  -2.2551  -0.6882  -0.6882   3.5176   3.5176   3.5190   3.5190
     6.9336   6.9336   7.2912   7.2912  15.9204  15.9204  15.9295  15.9295
    18.0506  18.0506  18.1040  18.1040  18.1123  18.1123  18.7836  18.7836
    19.9723  19.9723  20.2293  20.2293  24.1860  24.1860

          k = 0.9333 0.0000 0.0000 (  1350 PWs)   bands (ev):

    -2.0092  -2.0092  -0.9634  -0.9634   3.4956   3.4956   3.4965   3.4965
     6.9604   6.9604   7.1979   7.1979  16.2235  16.2235  16.2320  16.2320
    17.7960  17.7960  17.8041  17.8041  18.3455  18.3455  19.0835  19.0835
    19.6269  19.6269  20.0683  20.0683  24.5915  24.5915

          k = 0.9667 0.0000 0.0000 (  1362 PWs)   bands (ev):

    -1.7568  -1.7568  -1.2335  -1.2335   3.4825   3.4825   3.4830   3.4830
     7.0000   7.0000   7.1185   7.1185  16.4876  16.4876  16.4941  16.4941
    17.5298  17.5298  17.5361  17.5361  18.6506  18.6506  19.2914  19.2914
    19.3667  19.3667  19.8653  19.8653  24.9836  24.9836

          k = 1.0000 0.0000 0.0000 (  1362 PWs)   bands (ev):

    -1.4981  -1.4981  -1.4981  -1.4981   3.4783   3.4783   3.4783   3.4783
     7.0526   7.0526   7.0526   7.0526  16.6167  16.6167  16.6167  16.6167
    17.4057  17.4057  17.4057  17.4057  18.9660  18.9660  18.9660  18.9660
    19.6291  19.6291  19.6291  19.6291  25.3378  25.3378

          k = 1.0000 0.0250 0.0250 (  1362 PWs)   bands (ev):

    -1.5003  -1.5003  -1.4921  -1.4921   3.4398   3.4398   3.4828   3.4828
     7.0577   7.0577   7.1092   7.1092  16.5516  16.5516  16.5841  16.5841
    17.3250  17.3250  17.3364  17.3364  19.0341  19.0341  19.0349  19.0349
    19.6605  19.6605  19.7189  19.7189  25.2233  25.2233

          k = 1.0000 0.0500 0.0500 (  1354 PWs)   bands (ev):

    -1.5070  -1.5070  -1.4742  -1.4742   3.3321   3.3321   3.4961   3.4961
     7.0732   7.0732   7.2715   7.2715  16.3758  16.3758  16.4901  16.4901
    17.1139  17.1139  17.1565  17.1565  19.2102  19.2102  19.2224  19.2224
    19.7505  19.7505  19.9577  19.9577  24.9507  24.9507

          k = 1.0000 0.0750 0.0750 (  1348 PWs)   bands (ev):

    -1.5192  -1.5192  -1.4443  -1.4443   3.1735   3.1735   3.5184   3.5184
     7.0989   7.0989   7.5220   7.5220  16.1273  16.1273  16.3451  16.3451
    16.8264  16.8264  16.9136  16.9136  19.4467  19.4467  19.4900  19.4900
    19.8889  19.8889  20.2909  20.2909  24.6111  24.6111

          k = 1.0000 0.1000 0.1000 (  1346 PWs)   bands (ev):

    -1.5382  -1.5382  -1.4025  -1.4025   2.9850   2.9850   3.5494   3.5494
     7.1347   7.1347   7.8410   7.8410  15.8372  15.8372  16.1615  16.1615
    16.5011  16.5011  16.6396  16.6396  19.7118  19.7118  19.8059  19.8059
    20.0633  20.0633  20.6790  20.6790  24.2470  24.2470

          k = 1.0000 0.1250 0.1250 (  1350 PWs)   bands (ev):

    -1.5657  -1.5657  -1.3487  -1.3487   2.7845   2.7845   3.5891   3.5891
     7.1807   7.1807   8.2119   8.2119  15.5253  15.5253  15.9503  15.9503
    16.1592  16.1592  16.3511  16.3511  19.9888  19.9888  20.1493  20.1493
    20.2626  20.2626  21.0993  21.0993  23.8761  23.8761

          k = 1.0000 0.1500 0.1500 (  1344 PWs)   bands (ev):

    -1.6040  -1.6040  -1.2831  -1.2831   2.5863   2.5863   3.6374   3.6374
     7.2366   7.2366   8.6225   8.6225  15.2029  15.2029  15.7202  15.7202
    15.8123  15.8123  16.0573  16.0573  20.2688  20.2688  20.4723  20.4723
    20.5132  20.5132  21.5372  21.5372  23.5068  23.5068

          k = 1.0000 0.1750 0.1750 (  1348 PWs)   bands (ev):

    -1.6555  -1.6555  -1.2056  -1.2056   2.4012   2.4012   3.6940   3.6940
     7.3023   7.3023   9.0640   9.0640  14.8769  14.8769  15.4599  15.4599
    15.4847  15.4847  15.7633  15.7633  20.5470  20.5470  20.6964  20.6964
    20.8782  20.8782  21.9773  21.9773  23.1447  23.1447

          k = 1.0000 0.2000 0.2000 (  1348 PWs)   bands (ev):

    -1.7227  -1.7227  -1.1162  -1.1162   2.2373   2.2373   3.7588   3.7588
     7.3775   7.3775   9.5301   9.5301  14.5513  14.5513  15.1220  15.1220
    15.2326  15.2326  15.4727  15.4727  20.8208  20.8208  20.9182  20.9182
    21.2479  21.2479  22.3811  22.3811  22.7949  22.7949

          k = 1.0000 0.2250 0.2250 (  1348 PWs)   bands (ev):

    -1.8074  -1.8074  -1.0151  -1.0151   2.1007   2.1007   3.8316   3.8316
     7.4620   7.4620  10.0157  10.0157  14.2290  14.2290  14.7881  14.7881
    14.9811  14.9811  15.1879  15.1879  21.0886  21.0886  21.1292  21.1292
    21.6166  21.6166  22.4663  22.4663  22.5766  22.5766

          k = 1.0000 0.2500 0.2500 (  1350 PWs)   bands (ev):

    -1.9109  -1.9109  -0.9021  -0.9021   1.9951   1.9951   3.9120   3.9120
     7.5555   7.5555  10.5167  10.5167  13.9118  13.9118  14.4639  14.4639
    14.7296  14.7296  14.9105  14.9105  21.3023  21.3023  21.3499  21.3499
    21.9811  21.9811  22.1847  22.1847  22.4128  22.4128

          k = 0.9667 0.2417 0.2417 (  1353 PWs)   bands (ev):

    -1.9152  -1.9152  -0.9035  -0.9035   2.0410   2.0410   3.8884   3.8884
     7.5292   7.5292  10.3540  10.3540  13.9337  13.9337  14.3463  14.3463
    15.0361  15.0361  15.0943  15.0943  21.0575  21.0575  21.1972  21.1972
    21.8856  21.8856  22.0646  22.0646  22.8799  22.8799

          k = 0.9333 0.2333 0.2333 (  1349 PWs)   bands (ev):

    -2.0029  -2.0029  -0.8258  -0.8258   2.1161   2.1161   3.8739   3.8739
     7.5157   7.5157  10.2047  10.2047  13.8423  13.8423  14.1307  14.1307
    15.4087  15.4087  15.4400  15.4400  20.6049  20.6049  20.9835  20.9835
    21.5132  21.5132  22.3037  22.3037  23.2663  23.2663

          k = 0.9000 0.2250 0.2250 (  1349 PWs)   bands (ev):

    -2.1517  -2.1517  -0.6872  -0.6872   2.2157   2.2157   3.8686   3.8686
     7.5146   7.5146  10.0696  10.0696  13.7054  13.7054  13.9072  13.9072
    15.7877  15.7877  15.8455  15.8455  20.1300  20.1300  20.6783  20.6783
    21.1734  21.1734  22.5603  22.5603  23.2829  23.2829

          k = 0.8667 0.2167 0.2167 (  1348 PWs)   bands (ev):

    -2.3349  -2.3349  -0.5105  -0.5105   2.3362   2.3362   3.8726   3.8726
     7.5256   7.5256   9.9497   9.9497  13.5527  13.5527  13.6828  13.6828
    16.1978  16.1978  16.2434  16.2434  19.6563  19.6563  20.3037  20.3037
    20.8781  20.8781  22.8078  22.8078  23.2006  23.2006

          k = 0.8333 0.2083 0.2083 (  1346 PWs)   bands (ev):

    -2.5359  -2.5359  -0.3098  -0.3098   2.4741   2.4741   3.8860   3.8860
     7.5480   7.5480   9.8460   9.8460  13.3953  13.3953  13.4589  13.4589
    16.6195  16.6195  16.6312  16.6312  19.1912  19.1912  19.8874  19.8874
    20.6263  20.6263  23.0310  23.0310  23.0500  23.0500

          k = 0.8000 0.2000 0.2000 (  1349 PWs)   bands (ev):

    -2.7451  -2.7451  -0.0923  -0.0923   2.6267   2.6267   3.9089   3.9089
     7.5811   7.5811   9.7599   9.7599  13.2326  13.2326  13.2408  13.2408
    16.9752  16.9752  17.0661  17.0661  18.7399  18.7399  19.4493  19.4493
    20.4203  20.4203  22.8282  22.8282  23.2093  23.2093

          k = 0.7667 0.1917 0.1917 (  1355 PWs)   bands (ev):

    -2.9567  -2.9567   0.1380   0.1380   2.7915   2.7915   3.9413   3.9413
     7.6234   7.6234   9.6930   9.6930  13.0140  13.0140  13.0810  13.0810
    17.2809  17.2809  17.4991  17.4991  18.3155  18.3155  19.0006  19.0006
    20.2711  20.2711  22.5479  22.5479  23.3031  23.3031

          k = 0.7333 0.1833 0.1833 (  1359 PWs)   bands (ev):

    -3.1674  -3.1674   0.3790   0.3790   2.9666   2.9666   3.9832   3.9832
     7.6737   7.6737   9.6469   9.6469  12.7942  12.7942  12.9249  12.9249
    17.5157  17.5157  17.7322  17.7322  18.1103  18.1103  18.5498  18.5498
    20.1932  20.1932  22.2299  22.2299  23.2671  23.2671

          k = 0.7000 0.1750 0.1750 (  1363 PWs)   bands (ev):

    -3.3747  -3.3747   0.6295   0.6295   3.1500   3.1500   4.0347   4.0347
     7.7299   7.7299   9.6237   9.6237  12.5762  12.5762  12.7694  12.7694
    17.4038  17.4038  17.6453  17.6453  18.1142  18.1142  18.4822  18.4822
    20.1917  20.1917  21.9021  21.9021  23.1024  23.1024

          k = 0.6667 0.1667 0.1667 (  1359 PWs)   bands (ev):

    -3.5769  -3.5769   0.8886   0.8886   3.3400   3.3400   4.0955   4.0955
     7.7901   7.7901   9.6255   9.6255  12.3601  12.3601  12.6131  12.6131
    17.0210  17.0210  17.5224  17.5224  17.8390  17.8390  18.9160  18.9160
    20.2374  20.2374  21.6079  21.6079  22.8684  22.8684

          k = 0.6333 0.1583 0.1583 (  1355 PWs)   bands (ev):

    -3.7729  -3.7729   1.1557   1.1557   3.5350   3.5350   4.1658   4.1658
     7.8521   7.8521   9.6541   9.6541  12.1465  12.1465  12.4546  12.4546
    16.6507  16.6507  17.1125  17.1125  17.7739  17.7739  19.3314  19.3314
    20.2372  20.2372  21.4267  21.4267  22.6299  22.6299

          k = 0.6000 0.1500 0.1500 (  1351 PWs)   bands (ev):

    -3.9618  -3.9618   1.4305   1.4305   3.7337   3.7337   4.2453   4.2453
     7.9140   7.9140   9.7106   9.7106  11.9358  11.9358  12.2921  12.2921
    16.3008  16.3008  16.6641  16.6641  17.6954  17.6954  19.6932  19.6932
    20.0846  20.0846  21.4306  21.4306  22.4433  22.4433

          k = 0.5667 0.1417 0.1417 (  1351 PWs)   bands (ev):

    -4.1427  -4.1427   1.7126   1.7126   3.9345   3.9345   4.3339   4.3339
     7.9747   7.9747   9.7952   9.7952  11.7288  11.7288  12.1236  12.1236
    15.9748  15.9748  16.2126  16.2126  17.5897  17.5897  19.8007  19.8007
    19.9523  19.9523  21.5439  21.5439  22.3697  22.3697

          k = 0.5333 0.1333 0.1333 (  1349 PWs)   bands (ev):

    -4.3151  -4.3151   2.0015   2.0015   4.1361   4.1361   4.4315   4.4315
     8.0337   8.0337   9.9061   9.9061  11.5271  11.5271  11.9473  11.9473
    15.6752  15.6752  15.7643  15.7643  17.4649  17.4649  19.4623  19.4623
    20.0589  20.0589  21.6099  21.6099  22.4644  22.4644

          k = 0.5000 0.1250 0.1250 (  1347 PWs)   bands (ev):

    -4.4787  -4.4787   2.2970   2.2970   4.3374   4.3374   4.5378   4.5378
     8.0913   8.0913  10.0389  10.0389  11.3337  11.3337  11.7616  11.7616
    15.3218  15.3218  15.4041  15.4041  17.3251  17.3251  19.1137  19.1137
    20.0120  20.0120  21.5241  21.5241  22.7321  22.7321

          k = 0.4667 0.1167 0.1167 (  1348 PWs)   bands (ev):

    -4.6328  -4.6328   2.5987   2.5987   4.5368   4.5368   4.6527   4.6527
     8.1484   8.1484  10.1838  10.1838  11.1552  11.1552  11.5653  11.5653
    14.8883  14.8883  15.1627  15.1627  17.1693  17.1693  18.7794  18.7794
    19.8604  19.8604  21.3016  21.3016  23.1254  23.1254

          k = 0.4333 0.1083 0.1083 (  1348 PWs)   bands (ev):

    -4.7774  -4.7774   2.9060   2.9060   4.7324   4.7324   4.7767   4.7767
     8.2061   8.2061  10.3174  10.3174  11.0105  11.0105  11.3581  11.3581
    14.4673  14.4673  14.9516  14.9516  16.9920  16.9920  18.4771  18.4771
    19.6544  19.6544  21.0074  21.0074  23.5948  23.5948

          k = 0.4000 0.1000 0.1000 (  1350 PWs)   bands (ev):

    -4.9121  -4.9121   3.2184   3.2184   4.9010   4.9010   4.9313   4.9313
     8.2658   8.2658  10.3825  10.3825  10.9500  10.9500  11.1405  11.1405
    14.0646  14.0646  14.7705  14.7705  16.7869  16.7869  18.2209  18.2209
    19.4256  19.4256  20.6841  20.6841  24.1091  24.1091

          k = 0.3667 0.0917 0.0917 (  1354 PWs)   bands (ev):

    -5.0366  -5.0366   3.5352   3.5352   5.0401   5.0401   5.1170   5.1170
     8.3281   8.3281  10.3261  10.3261  10.9139  10.9139  11.0157  11.0157
    13.6899  13.6899  14.6179  14.6179  16.5512  16.5512  18.0188  18.0188
    19.1912  19.1912  20.3521  20.3521  24.6505  24.6505

          k = 0.3333 0.0833 0.0833 (  1350 PWs)   bands (ev):

    -5.1508  -5.1508   3.8553   3.8553   5.1834   5.1834   5.2982   5.2982
     8.3937   8.3937  10.1951  10.1951  10.6810  10.6810  11.1409  11.1409
    13.3614  13.3614  14.4920  14.4920  16.2898  16.2898  17.8700  17.8700
    18.9612  18.9612  20.0209  20.0209  24.9797  24.9797

          k = 0.3000 0.0750 0.0750 (  1350 PWs)   bands (ev):

    -5.2546  -5.2546   4.1774   4.1774   5.3314   5.3314   5.4719   5.4719
     8.4625   8.4625  10.0403  10.0403  10.4442  10.4442  11.2415  11.2415
    13.1117  13.1117  14.3901  14.3901  16.0134  16.0134  17.7670  17.7670
    18.7415  18.7415  19.6952  19.6952  24.5306  24.5306

          k = 0.2667 0.0667 0.0667 (  1356 PWs)   bands (ev):

    -5.3477  -5.3477   4.4998   4.4998   5.4828   5.4828   5.6366   5.6366
     8.5339   8.5339   9.8804   9.8804  10.2073  10.2073  11.2520  11.2520
    12.9864  12.9864  14.3094  14.3094  15.7342  15.7342  17.7002  17.7002
    18.5362  18.5362  19.3778  19.3778  24.0621  24.0621

          k = 0.2333 0.0583 0.0583 (  1359 PWs)   bands (ev):

    -5.4301  -5.4301   4.8200   4.8200   5.6357   5.6357   5.7905   5.7905
     8.6068   8.6068   9.7224   9.7224   9.9741   9.9741  11.1416  11.1416
    13.0084  13.0084  14.2470  14.2470  15.4631  15.4631  17.6614  17.6614
    18.3484  18.3484  19.0710  19.0710  23.6128  23.6128

          k = 0.2000 0.0500 0.0500 (  1362 PWs)   bands (ev):

    -5.5018  -5.5018   5.1344   5.1344   5.7874   5.7874   5.9318   5.9318
     8.6791   8.6791   9.5694   9.5694   9.7492   9.7492  10.9389  10.9389
    13.1454  13.1454  14.1999  14.1999  15.2091  15.2091  17.6435  17.6435
    18.1803  18.1803  18.7771  18.7771  23.1962  23.1962

          k = 0.1667 0.0417 0.0417 (  1367 PWs)   bands (ev):

    -5.5625  -5.5625   5.4379   5.4379   5.9342   5.9342   6.0584   6.0584
     8.7484   8.7484   9.4230   9.4230   9.5378   9.5378  10.6951  10.6951
    13.3443  13.3443  14.1655  14.1655  14.9796  14.9796  17.6408  17.6408
    18.0342  18.0342  18.4998  18.4998  22.8224  22.8224

          k = 0.1333 0.0333 0.0333 (  1373 PWs)   bands (ev):

    -5.6123  -5.6123   5.7225   5.7225   6.0711   6.0711   6.1679   6.1679
     8.8117   8.8117   9.2844   9.2844   9.3467   9.3467  10.4503  10.4503
    13.5636  13.5636  14.1411  14.1411  14.7814  14.7814  17.6482  17.6482
    17.9118  17.9118  18.2450  18.2450  22.5003  22.5003

          k = 0.1000 0.0250 0.0250 (  1373 PWs)   bands (ev):

    -5.6510  -5.6510   5.9765   5.9765   6.1914   6.1914   6.2581   6.2581
     8.8655   8.8655   9.1554   9.1554   9.1845   9.1845  10.2327  10.2327
    13.7733  13.7733  14.1248  14.1248  14.6201  14.6201  17.6608  17.6608
    17.8148  17.8148  18.0223  18.0223  22.2386  22.2386

          k = 0.0667 0.0167 0.0167 (  1369 PWs)   bands (ev):

    -5.6787  -5.6787   6.1817   6.1817   6.2871   6.2871   6.3272   6.3272
     8.9059   8.9059   9.0421   9.0421   9.0617   9.0617  10.0634  10.0634
    13.9483  13.9483  14.1145  14.1145  14.5008  14.5008  17.6738  17.6738
    17.7444  17.7444  17.8448  17.8448  22.0450  22.0450

          k = 0.0333 0.0083 0.0083 (  1363 PWs)   bands (ev):

    -5.6954  -5.6954   6.3092   6.3092   6.3560   6.3560   6.3735   6.3735
     8.9259   8.9259   8.9678   8.9678   8.9826   8.9826   9.9568   9.9568
    14.0656  14.0656  14.1089  14.1089  14.4275  14.4275  17.6828  17.6828
    17.7021  17.7021  17.7289  17.7289  21.9260  21.9260

          k = 0.0000 0.0000 0.0000 (  1363 PWs)   bands (ev):

    -5.7009  -5.7009   6.3424   6.3424   6.3908   6.3908   6.3908   6.3908
     8.9194   8.9194   8.9544   8.9544   8.9544   8.9544   9.9206   9.9206
    14.1071  14.1071  14.1071  14.1071  14.4028  14.4028  17.6803  17.6803
    17.6910  17.6910  17.6910  17.6910  21.8858  21.8858

     Writing all to output data dir ./tmp/silicon.save/

     init_run     :      1.04s CPU      1.11s WALL (       1 calls)
     electrons    :    270.59s CPU    271.47s WALL (       1 calls)

     Called by init_run:
     wfcinit      :      0.00s CPU      0.00s WALL (       1 calls)
     potinit      :      0.36s CPU      0.37s WALL (       1 calls)
     hinit0       :      0.56s CPU      0.56s WALL (       1 calls)

     Called by electrons:
     c_bands      :    270.59s CPU    271.47s WALL (       1 calls)
     v_of_rho     :      0.01s CPU      0.01s WALL (       1 calls)
     newd         :      0.10s CPU      0.15s WALL (       1 calls)
     PAW_pot      :      0.34s CPU      0.35s WALL (       1 calls)

     Called by c_bands:
     init_us_2    :      0.04s CPU      0.05s WALL (      91 calls)
     init_us_2:cp :      0.04s CPU      0.05s WALL (      91 calls)
     cegterg      :    262.75s CPU    263.51s WALL (     246 calls)

     Called by *egterg:
     cdiaghg      :      6.66s CPU      6.68s WALL (    4094 calls)
     h_psi        :    105.14s CPU    105.66s WALL (    4340 calls)
     s_psi        :     25.80s CPU     25.84s WALL (    4340 calls)
     g_psi        :      0.64s CPU      0.64s WALL (    4003 calls)

     Called by h_psi:
     h_psi:calbec :     24.30s CPU     24.38s WALL (    4340 calls)
     vloc_psi     :     54.31s CPU     54.72s WALL (    4340 calls)
     add_vuspsi   :     26.08s CPU     26.11s WALL (    4340 calls)

     General routines
     calbec       :     24.28s CPU     24.37s WALL (    4340 calls)
     fft          :      0.14s CPU      0.14s WALL (      15 calls)
     fftw         :     37.84s CPU     38.14s WALL (  279932 calls)
     davcio       :      0.07s CPU      0.11s WALL (     182 calls)

     Parallel routines

     PWSCF        :   4m32.08s CPU   4m33.20s WALL


   This run was terminated on:   0:25:16   1Jun2023            

=------------------------------------------------------------------------------=
   JOB DONE.
=------------------------------------------------------------------------------=
