
     Program PWSCF v.7.2 starts on  2Jun2023 at  1:34:49 

     This program is part of the open-source Quantum ESPRESSO suite
     for quantum simulation of materials; please cite
         "P. Giannozzi et al., J. Phys.:Condens. Matter 21 395502 (2009);
         "P. Giannozzi et al., J. Phys.:Condens. Matter 29 465901 (2017);
         "P. Giannozzi et al., J. Chem. Phys. 152 154105 (2020);
          URL http://www.quantum-espresso.org", 
     in publications or presentations arising from this work. More details at
     http://www.quantum-espresso.org/quote

     Parallel version (MPI), running on     1 processors

     MPI processes distributed on     1 nodes
     332 MiB available memory on the printing compute node when the environment starts

     Reading input from 1_c.scf.in

     Current dimensions of program PWSCF are:
     Max number of different atomic species (ntypx) = 10
     Max number of k-points (npk) =  40000
     Max angular momentum in pseudopotentials (lmaxx) =  4
     file C.rel-pbe-n-kjpaw_psl.1.0.0.UPF: wavefunction(s)  2S 2P 2P renormalized

     Subspace diagonalization in iterative solution of the eigenvalue problem:
     a serial algorithm will be used


     G-vector sticks info
     --------------------
     sticks:   dense  smooth     PW     G-vecs:    dense   smooth      PW
     Sum        5129    5129   1829                35379    35379    7491

     Using Slab Decomposition



     bravais-lattice index     =            6
     lattice parameter (alat)  =      18.8973  a.u.
     unit-cell volume          =     866.9585 (a.u.)^3
     number of atoms/cell      =            1
     number of atomic types    =            1
     number of electrons       =         4.00
     number of Kohn-Sham states=           12
     kinetic-energy cutoff     =      45.0000  Ry
     charge density cutoff     =     180.0000  Ry
     scf convergence threshold =      1.0E-06
     mixing beta               =       0.7000
     number of iterations used =            8  plain     mixing
     Exchange-correlation= SLA  PW   PBX  PBC
                           (   1   4   3   4   0   0   0)
     Non magnetic calculation with spin-orbit


     celldm(1)=  18.897261  celldm(2)=   1.000000  celldm(3)=   0.128470
     celldm(4)=   0.000000  celldm(5)=   0.000000  celldm(6)=   0.000000

     crystal axes: (cart. coord. in units of alat)
               a(1) = (   1.000000   0.000000   0.000000 )  
               a(2) = (   0.000000   1.000000   0.000000 )  
               a(3) = (   0.000000   0.000000   0.128470 )  

     reciprocal axes: (cart. coord. in units 2 pi/alat)
               b(1) = (  1.000000  0.000000  0.000000 )  
               b(2) = (  0.000000  1.000000  0.000000 )  
               b(3) = (  0.000000  0.000000  7.783918 )  


     PseudoPot. # 1 for C  read from file:
     ./C.rel-pbe-n-kjpaw_psl.1.0.0.UPF
     MD5 check sum: dd2b8f743de1f3a10095e4114fb28074
     Pseudo is Projector augmented-wave + core cor, Zval =  4.0
     Generated using &quot;atomic&quot; code by A. Dal Corso  v.6.3
     Shape of augmentation charge: PSQ
     Using radial grid of 1073 points,  6 beta functions with: 
                l(1) =   0
                l(2) =   0
                l(3) =   1
                l(4) =   1
                l(5) =   1
                l(6) =   1
     Q(r) pseudized with 0 coefficients 


     atomic species   valence    mass     pseudopotential
        C              4.00    12.01100     C ( 1.00)

     16 Sym. Ops., with inversion, found



   Cartesian axes

     site n.     atom                  positions (alat units)
         1           C   tau(   1) = (   0.0000000   0.0000000   0.0000000  )

     number of k points=    26  Methfessel-Paxton smearing, width (Ry)=  0.0100
                       cart. coord. in units 2pi/alat
        k(    1) = (  -0.5000000  -0.5000000   0.0763129), wk =   0.0392157
        k(    2) = (  -0.5000000  -0.5000000   0.2289388), wk =   0.0392157
        k(    3) = (  -0.5000000  -0.5000000   0.3815646), wk =   0.0392157
        k(    4) = (  -0.5000000  -0.5000000   0.5341905), wk =   0.0392157
        k(    5) = (  -0.5000000  -0.5000000   0.6868163), wk =   0.0392157
        k(    6) = (  -0.5000000  -0.5000000   0.8394422), wk =   0.0392157
        k(    7) = (  -0.5000000  -0.5000000   0.9920680), wk =   0.0392157
        k(    8) = (  -0.5000000  -0.5000000   1.1446939), wk =   0.0392157
        k(    9) = (  -0.5000000  -0.5000000   1.2973197), wk =   0.0392157
        k(   10) = (  -0.5000000  -0.5000000   1.4499456), wk =   0.0392157
        k(   11) = (  -0.5000000  -0.5000000   1.6025714), wk =   0.0392157
        k(   12) = (  -0.5000000  -0.5000000   1.7551973), wk =   0.0392157
        k(   13) = (  -0.5000000  -0.5000000   1.9078231), wk =   0.0392157
        k(   14) = (  -0.5000000  -0.5000000   2.0604490), wk =   0.0392157
        k(   15) = (  -0.5000000  -0.5000000   2.2130748), wk =   0.0392157
        k(   16) = (  -0.5000000  -0.5000000   2.3657007), wk =   0.0392157
        k(   17) = (  -0.5000000  -0.5000000   2.5183265), wk =   0.0392157
        k(   18) = (  -0.5000000  -0.5000000   2.6709524), wk =   0.0392157
        k(   19) = (  -0.5000000  -0.5000000   2.8235783), wk =   0.0392157
        k(   20) = (  -0.5000000  -0.5000000   2.9762041), wk =   0.0392157
        k(   21) = (  -0.5000000  -0.5000000   3.1288300), wk =   0.0392157
        k(   22) = (  -0.5000000  -0.5000000   3.2814558), wk =   0.0392157
        k(   23) = (  -0.5000000  -0.5000000   3.4340817), wk =   0.0392157
        k(   24) = (  -0.5000000  -0.5000000   3.5867075), wk =   0.0392157
        k(   25) = (  -0.5000000  -0.5000000   3.7393334), wk =   0.0392157
        k(   26) = (  -0.5000000  -0.5000000  -3.8919592), wk =   0.0196078

     Dense  grid:    35379 G-vectors     FFT dimensions: (  81,  81,  12)

     Estimated max dynamical RAM per process >     167.80 MB

     Check: negative core charge=   -0.000012

     Initial potential from superposition of free atoms

     starting charge       4.0000, renormalised to       4.0000

     negative rho (up, down):  4.417E-04 0.000E+00
     Starting wfcs are    8 randomized atomic wfcs +    4 random wfcs
     Checking if some PAW data can be deallocated... 

     total cpu time spent up to now is        2.4 secs

     Self-consistent Calculation

     iteration #  1     ecut=    45.00 Ry     beta= 0.70
     Davidson diagonalization with overlap
     ethr =  1.00E-02,  avg # of iterations =  6.5

     negative rho (up, down):  6.459E-04 0.000E+00

     total cpu time spent up to now is       12.8 secs

     total energy              =     -18.34528591 Ry
     estimated scf accuracy    <       0.12824818 Ry

     iteration #  2     ecut=    45.00 Ry     beta= 0.70
     Davidson diagonalization with overlap
     ethr =  3.21E-03,  avg # of iterations =  2.0

     negative rho (up, down):  6.973E-04 0.000E+00

     total cpu time spent up to now is       18.2 secs

     total energy              =     -18.37105931 Ry
     estimated scf accuracy    <       0.00381954 Ry

     iteration #  3     ecut=    45.00 Ry     beta= 0.70
     Davidson diagonalization with overlap
     ethr =  9.55E-05,  avg # of iterations =  4.0

     negative rho (up, down):  7.562E-04 0.000E+00

     total cpu time spent up to now is       25.0 secs

     total energy              =     -18.37157484 Ry
     estimated scf accuracy    <       0.00009892 Ry

     iteration #  4     ecut=    45.00 Ry     beta= 0.70
     Davidson diagonalization with overlap
     c_bands:  1 eigenvalues not converged
     c_bands:  2 eigenvalues not converged
     c_bands:  2 eigenvalues not converged
     c_bands:  1 eigenvalues not converged
     c_bands:  1 eigenvalues not converged
     c_bands:  3 eigenvalues not converged
     ethr =  2.47E-06,  avg # of iterations = 13.3

     negative rho (up, down):  7.628E-04 0.000E+00

     total cpu time spent up to now is       35.9 secs

     End of self-consistent calculation

          k =-0.5000-0.5000 0.0763 (  4496 PWs)   bands (ev):

   -20.6779 -20.6779  -9.7283  -9.7283  -9.7229  -9.7229   0.1761   0.1761
     0.3279   0.3280   0.3299   0.3422

          k =-0.5000-0.5000 0.2289 (  4496 PWs)   bands (ev):

   -20.6383 -20.6383  -9.6621  -9.6621  -9.6567  -9.6567   0.2420   0.2420
     0.3978   0.3979   0.3981   0.3994

          k =-0.5000-0.5000 0.3816 (  4488 PWs)   bands (ev):

   -20.5591 -20.5591  -9.5298  -9.5298  -9.5244  -9.5244   0.3738   0.3739
     0.5376   0.5376   0.5378   0.5439

          k =-0.5000-0.5000 0.5342 (  4476 PWs)   bands (ev):

   -20.4410 -20.4410  -9.3315  -9.3315  -9.3261  -9.3261   0.5712   0.5712
     0.7473   0.7474   0.7476   0.7519

          k =-0.5000-0.5000 0.6868 (  4480 PWs)   bands (ev):

   -20.2846 -20.2846  -9.0674  -9.0674  -9.0619  -9.0619   0.8338   0.8338
     1.0270   1.0270   1.0282   1.0298

          k =-0.5000-0.5000 0.8394 (  4488 PWs)   bands (ev):

   -20.0908 -20.0908  -8.7378  -8.7378  -8.7323  -8.7323   1.1608   1.1608
     1.3765   1.3766   1.3767   1.3796

          k =-0.5000-0.5000 0.9921 (  4480 PWs)   bands (ev):

   -19.8607 -19.8607  -8.3430  -8.3430  -8.3374  -8.3374   1.5515   1.5515
     1.7959   1.7960   1.7962   1.7973

          k =-0.5000-0.5000 1.1447 (  4472 PWs)   bands (ev):

   -19.5960 -19.5960  -7.8835  -7.8835  -7.8779  -7.8779   2.0041   2.0041
     2.2852   2.2853   2.2858   2.2863

          k =-0.5000-0.5000 1.2973 (  4484 PWs)   bands (ev):

   -19.2982 -19.2982  -7.3598  -7.3598  -7.3541  -7.3541   2.5168   2.5168
     2.8441   2.8442   2.8447   2.8458

          k =-0.5000-0.5000 1.4499 (  4484 PWs)   bands (ev):

   -18.9697 -18.9697  -6.7728  -6.7728  -6.7670  -6.7670   3.0860   3.0860
     3.4729   3.4731   3.4748   3.4765

          k =-0.5000-0.5000 1.6026 (  4448 PWs)   bands (ev):

   -18.6127 -18.6127  -6.1233  -6.1233  -6.1174  -6.1174   3.7063   3.7063
     4.1715   4.1717   4.1732   4.1787

          k =-0.5000-0.5000 1.7552 (  4448 PWs)   bands (ev):

   -18.2303 -18.2303  -5.4126  -5.4126  -5.4066  -5.4066   4.3680   4.3680
     4.9397   4.9398   4.9400   4.9420

          k =-0.5000-0.5000 1.9078 (  4440 PWs)   bands (ev):

   -17.8260 -17.8260  -4.6421  -4.6421  -4.6361  -4.6361   5.0537   5.0537
     5.7774   5.7775   5.7776   5.8565

          k =-0.5000-0.5000 2.0604 (  4432 PWs)   bands (ev):

   -17.4036 -17.4036  -3.8141  -3.8141  -3.8078  -3.8078   5.7293   5.7293
     6.6846   6.6847   6.6847   6.7653

          k =-0.5000-0.5000 2.2131 (  4416 PWs)   bands (ev):

   -16.9678 -16.9678  -2.9310  -2.9310  -2.9246  -2.9246   6.3286   6.3286
     7.6609   7.6610   7.6618   7.6631

          k =-0.5000-0.5000 2.3657 (  4400 PWs)   bands (ev):

   -16.5241 -16.5241  -1.9964  -1.9964  -1.9898  -1.9898   6.7395   6.7396
     8.7062   8.7063   8.7065   8.7996

          k =-0.5000-0.5000 2.5183 (  4388 PWs)   bands (ev):

   -16.0787 -16.0787  -1.0152  -1.0152  -1.0083  -1.0083   6.8523   6.8523
     9.8200   9.8201   9.8203   9.9236

          k =-0.5000-0.5000 2.6710 (  4380 PWs)   bands (ev):

   -15.6388 -15.6388   0.0060   0.0060   0.0131   0.0131   6.6711   6.6711
    11.0016  11.0017  11.0018  11.1149

          k =-0.5000-0.5000 2.8236 (  4372 PWs)   bands (ev):

   -15.2129 -15.2129   1.0575   1.0575   1.0649   1.0649   6.3019   6.3019
    12.2495  12.2497  12.2510  12.3763

          k =-0.5000-0.5000 2.9762 (  4372 PWs)   bands (ev):

   -14.8103 -14.8103   2.1254   2.1254   2.1333   2.1333   5.8501   5.8501
    13.5614  13.5618  13.5631  13.5662

          k =-0.5000-0.5000 3.1288 (  4344 PWs)   bands (ev):

   -14.4416 -14.4416   3.1888   3.1888   3.1971   3.1971   5.3872   5.3872
    14.9307  14.9308  14.9311  14.9312

          k =-0.5000-0.5000 3.2815 (  4356 PWs)   bands (ev):

   -14.1179 -14.1179   4.2158   4.2158   4.2248   4.2248   4.9591   4.9591
    16.3394  16.3396  16.3400  16.3414

          k =-0.5000-0.5000 3.4341 (  4336 PWs)   bands (ev):

   -13.8505 -13.8505   4.5970   4.5970   5.1580   5.1580   5.1676   5.1676
    17.7041  17.7041  17.7049  17.7051

          k =-0.5000-0.5000 3.5867 (  4328 PWs)   bands (ev):

   -13.6503 -13.6503   4.3231   4.3231   5.9435   5.9435   5.9538   5.9538
    18.5361  18.5361  18.5372  18.5372

          k =-0.5000-0.5000 3.7393 (  4348 PWs)   bands (ev):

   -13.5262 -13.5262   4.1525   4.1525   6.4785   6.4785   6.4893   6.4893
    18.4885  18.4885  18.4888  18.4888

          k =-0.5000-0.5000-3.8920 (  4320 PWs)   bands (ev):

   -13.4841 -13.4841   4.0947   4.0947   6.6704   6.6704   6.6815   6.6815
    18.3851  18.3852  18.3852  18.3852

     the Fermi energy is    -4.5967 ev

!    total energy              =     -18.37157825 Ry
     total all-electron energy =       -76.135714 Ry
     estimated scf accuracy    <       0.00000017 Ry
     smearing contrib. (-TS)   =      -0.00016153 Ry
     internal energy E=F+TS    =     -18.37141672 Ry

     The total energy is F=E-TS. E is the sum of the following terms:
     one-electron contribution =     -32.76949849 Ry
     hartree contribution      =      16.86234588 Ry
     xc contribution           =      -4.53991098 Ry
     ewald contribution        =       8.24599272 Ry
     one-center paw contrib.   =      -6.17034585 Ry

     convergence has been achieved in   4 iterations

     Writing all to output data dir ./outdir/soc.save/

     init_run     :      2.13s CPU      2.22s WALL (       1 calls)
     electrons    :     33.02s CPU     33.46s WALL (       1 calls)

     Called by init_run:
     wfcinit      :      1.67s CPU      1.70s WALL (       1 calls)
     potinit      :      0.10s CPU      0.10s WALL (       1 calls)
     hinit0       :      0.29s CPU      0.31s WALL (       1 calls)

     Called by electrons:
     c_bands      :     29.46s CPU     29.69s WALL (       4 calls)
     sum_band     :      3.05s CPU      3.15s WALL (       4 calls)
     v_of_rho     :      0.18s CPU      0.18s WALL (       5 calls)
     newd         :      0.19s CPU      0.31s WALL (       5 calls)
     PAW_pot      :      0.16s CPU      0.16s WALL (       5 calls)
     mix_rho      :      0.06s CPU      0.07s WALL (       4 calls)

     Called by c_bands:
     init_us_2    :      0.17s CPU      0.17s WALL (     234 calls)
     init_us_2:cp :      0.17s CPU      0.17s WALL (     234 calls)
     cegterg      :     29.01s CPU     29.23s WALL (     104 calls)

     Called by *egterg:
     cdiaghg      :      0.16s CPU      0.17s WALL (     772 calls)
     h_psi        :     19.46s CPU     19.58s WALL (     798 calls)
     s_psi        :      1.14s CPU      1.19s WALL (     798 calls)
     g_psi        :      0.11s CPU      0.11s WALL (     668 calls)

     Called by h_psi:
     h_psi:calbec :      1.20s CPU      1.20s WALL (     798 calls)
     vloc_psi     :     16.90s CPU     17.00s WALL (     798 calls)
     add_vuspsi   :      1.21s CPU      1.22s WALL (     798 calls)

     General routines
     calbec       :      1.50s CPU      1.51s WALL (     902 calls)
     fft          :      0.15s CPU      0.17s WALL (      79 calls)
     ffts         :      0.01s CPU      0.01s WALL (      16 calls)
     fftw         :     15.43s CPU     15.51s WALL (   21428 calls)

     Parallel routines

     PWSCF        :     35.30s CPU     35.93s WALL


   This run was terminated on:   1:35:25   2Jun2023            

=------------------------------------------------------------------------------=
   JOB DONE.
=------------------------------------------------------------------------------=
