
     Program PWSCF v.7.2 starts on  2Jun2023 at  1:36:38 

     This program is part of the open-source Quantum ESPRESSO suite
     for quantum simulation of materials; please cite
         "P. Giannozzi et al., J. Phys.:Condens. Matter 21 395502 (2009);
         "P. Giannozzi et al., J. Phys.:Condens. Matter 29 465901 (2017);
         "P. Giannozzi et al., J. Chem. Phys. 152 154105 (2020);
          URL http://www.quantum-espresso.org", 
     in publications or presentations arising from this work. More details at
     http://www.quantum-espresso.org/quote

     Parallel version (MPI), running on     1 processors

     MPI processes distributed on     1 nodes
     277 MiB available memory on the printing compute node when the environment starts

     Reading input from 2_c.nscf.in

     Current dimensions of program PWSCF are:
     Max number of different atomic species (ntypx) = 10
     Max number of k-points (npk) =  40000
     Max angular momentum in pseudopotentials (lmaxx) =  4
     file C.rel-pbe-n-kjpaw_psl.1.0.0.UPF: wavefunction(s)  2S 2P 2P renormalized

     Atomic positions and unit cell read from directory:
     ./outdir/soc.save/


     Subspace diagonalization in iterative solution of the eigenvalue problem:
     a serial algorithm will be used


     G-vector sticks info
     --------------------
     sticks:   dense  smooth     PW     G-vecs:    dense   smooth      PW
     Sum        5129    5129   1829                35379    35379    7491

     Using Slab Decomposition



     bravais-lattice index     =            6
     lattice parameter (alat)  =      18.8973  a.u.
     unit-cell volume          =     866.9585 (a.u.)^3
     number of atoms/cell      =            1
     number of atomic types    =            1
     number of electrons       =         4.00
     number of Kohn-Sham states=           20
     kinetic-energy cutoff     =      45.0000  Ry
     charge density cutoff     =     180.0000  Ry
     Exchange-correlation= SLA  PW   PBX  PBC
                           (   1   4   3   4   0   0   0)
     Non magnetic calculation with spin-orbit


     celldm(1)=  18.897261  celldm(2)=   1.000000  celldm(3)=   0.128470
     celldm(4)=   0.000000  celldm(5)=   0.000000  celldm(6)=   0.000000

     crystal axes: (cart. coord. in units of alat)
               a(1) = (   1.000000   0.000000   0.000000 )  
               a(2) = (   0.000000   1.000000   0.000000 )  
               a(3) = (   0.000000   0.000000   0.128470 )  

     reciprocal axes: (cart. coord. in units 2 pi/alat)
               b(1) = (  1.000000  0.000000  0.000000 )  
               b(2) = (  0.000000  1.000000  0.000000 )  
               b(3) = (  0.000000  0.000000  7.783918 )  


     PseudoPot. # 1 for C  read from file:
     ./C.rel-pbe-n-kjpaw_psl.1.0.0.UPF
     MD5 check sum: dd2b8f743de1f3a10095e4114fb28074
     Pseudo is Projector augmented-wave + core cor, Zval =  4.0
     Generated using &quot;atomic&quot; code by A. Dal Corso  v.6.3
     Shape of augmentation charge: PSQ
     Using radial grid of 1073 points,  6 beta functions with: 
                l(1) =   0
                l(2) =   0
                l(3) =   1
                l(4) =   1
                l(5) =   1
                l(6) =   1
     Q(r) pseudized with 0 coefficients 


     atomic species   valence    mass     pseudopotential
        C              4.00    12.01100     C ( 1.00)

     16 Sym. Ops., with inversion, found



   Cartesian axes

     site n.     atom                  positions (alat units)
         1           C   tau(   1) = (   0.0000000   0.0000000   0.0000000  )

     number of k points=    41 (tetrahedron method)
                       cart. coord. in units 2pi/alat
        k(    1) = (  -0.5000000  -0.5000000   0.0480489), wk =   0.0246914
        k(    2) = (  -0.5000000  -0.5000000   0.1441466), wk =   0.0246914
        k(    3) = (  -0.5000000  -0.5000000   0.2402444), wk =   0.0246914
        k(    4) = (  -0.5000000  -0.5000000   0.3363422), wk =   0.0246914
        k(    5) = (  -0.5000000  -0.5000000   0.4324399), wk =   0.0246914
        k(    6) = (  -0.5000000  -0.5000000   0.5285377), wk =   0.0246914
        k(    7) = (  -0.5000000  -0.5000000   0.6246354), wk =   0.0246914
        k(    8) = (  -0.5000000  -0.5000000   0.7207332), wk =   0.0246914
        k(    9) = (  -0.5000000  -0.5000000   0.8168309), wk =   0.0246914
        k(   10) = (  -0.5000000  -0.5000000   0.9129287), wk =   0.0246914
        k(   11) = (  -0.5000000  -0.5000000   1.0090265), wk =   0.0246914
        k(   12) = (  -0.5000000  -0.5000000   1.1051242), wk =   0.0246914
        k(   13) = (  -0.5000000  -0.5000000   1.2012220), wk =   0.0246914
        k(   14) = (  -0.5000000  -0.5000000   1.2973197), wk =   0.0246914
        k(   15) = (  -0.5000000  -0.5000000   1.3934175), wk =   0.0246914
        k(   16) = (  -0.5000000  -0.5000000   1.4895153), wk =   0.0246914
        k(   17) = (  -0.5000000  -0.5000000   1.5856130), wk =   0.0246914
        k(   18) = (  -0.5000000  -0.5000000   1.6817108), wk =   0.0246914
        k(   19) = (  -0.5000000  -0.5000000   1.7778085), wk =   0.0246914
        k(   20) = (  -0.5000000  -0.5000000   1.8739063), wk =   0.0246914
        k(   21) = (  -0.5000000  -0.5000000   1.9700040), wk =   0.0246914
        k(   22) = (  -0.5000000  -0.5000000   2.0661018), wk =   0.0246914
        k(   23) = (  -0.5000000  -0.5000000   2.1621996), wk =   0.0246914
        k(   24) = (  -0.5000000  -0.5000000   2.2582973), wk =   0.0246914
        k(   25) = (  -0.5000000  -0.5000000   2.3543951), wk =   0.0246914
        k(   26) = (  -0.5000000  -0.5000000   2.4504928), wk =   0.0246914
        k(   27) = (  -0.5000000  -0.5000000   2.5465906), wk =   0.0246914
        k(   28) = (  -0.5000000  -0.5000000   2.6426884), wk =   0.0246914
        k(   29) = (  -0.5000000  -0.5000000   2.7387861), wk =   0.0246914
        k(   30) = (  -0.5000000  -0.5000000   2.8348839), wk =   0.0246914
        k(   31) = (  -0.5000000  -0.5000000   2.9309816), wk =   0.0246914
        k(   32) = (  -0.5000000  -0.5000000   3.0270794), wk =   0.0246914
        k(   33) = (  -0.5000000  -0.5000000   3.1231771), wk =   0.0246914
        k(   34) = (  -0.5000000  -0.5000000   3.2192749), wk =   0.0246914
        k(   35) = (  -0.5000000  -0.5000000   3.3153727), wk =   0.0246914
        k(   36) = (  -0.5000000  -0.5000000   3.4114704), wk =   0.0246914
        k(   37) = (  -0.5000000  -0.5000000   3.5075682), wk =   0.0246914
        k(   38) = (  -0.5000000  -0.5000000   3.6036659), wk =   0.0246914
        k(   39) = (  -0.5000000  -0.5000000   3.6997637), wk =   0.0246914
        k(   40) = (  -0.5000000  -0.5000000   3.7958615), wk =   0.0246914
        k(   41) = (  -0.5000000  -0.5000000  -3.8919592), wk =   0.0123457

     Dense  grid:    35379 G-vectors     FFT dimensions: (  81,  81,  12)

     Estimated max dynamical RAM per process >      87.70 MB

     Check: negative core charge=   -0.000012

     The potential is recalculated from file :
     ./outdir/soc.save/charge-density


     negative rho (up, down):  7.628E-04 0.000E+00
     Starting wfcs are    8 randomized atomic wfcs +   12 random wfcs
     Checking if some PAW data can be deallocated... 

     Band Structure Calculation
     Davidson diagonalization with overlap

     ethr =  2.50E-08,  avg # of iterations = 55.9

     total cpu time spent up to now is      204.8 secs

     End of band structure calculation

          k =-0.5000-0.5000 0.0480 (  4512 PWs)   bands (ev):

   -20.6757 -20.6757  -9.7289  -9.7289  -9.7235  -9.7235   0.1732   0.1732
     0.3231   0.3231   0.3233   0.3233   0.3877   0.3877   2.5241   2.5241
     2.8409   2.8409   3.3348   3.3349

          k =-0.5000-0.5000 0.1441 (  4504 PWs)   bands (ev):

   -20.6599 -20.6599  -9.7027  -9.7027  -9.6973  -9.6973   0.1993   0.1993
     0.3508   0.3508   0.3510   0.3510   0.4155   0.4155   2.5519   2.5519
     2.8687   2.8687   3.3625   3.3626

          k =-0.5000-0.5000 0.2402 (  4496 PWs)   bands (ev):

   -20.6285 -20.6285  -9.6502  -9.6502  -9.6448  -9.6448   0.2516   0.2516
     0.4062   0.4062   0.4064   0.4064   0.4710   0.4710   2.6075   2.6075
     2.9243   2.9243   3.4179   3.4181

          k =-0.5000-0.5000 0.3363 (  4488 PWs)   bands (ev):

   -20.5814 -20.5814  -9.5716  -9.5716  -9.5661  -9.5661   0.3300   0.3300
     0.4894   0.4894   0.4896   0.4896   0.5544   0.5544   2.6908   2.6908
     3.0076   3.0076   3.5012   3.5012

          k =-0.5000-0.5000 0.4324 (  4480 PWs)   bands (ev):

   -20.5188 -20.5188  -9.4667  -9.4667  -9.4613  -9.4613   0.4345   0.4345
     0.6002   0.6002   0.6004   0.6004   0.6655   0.6655   2.8019   2.8019
     3.1187   3.1187   3.6120   3.6121

          k =-0.5000-0.5000 0.5285 (  4476 PWs)   bands (ev):

   -20.4408 -20.4408  -9.3357  -9.3357  -9.3302  -9.3302   0.5649   0.5649
     0.7388   0.7388   0.7390   0.7390   0.8044   0.8044   2.9408   2.9408
     3.2576   3.2576   3.7506   3.7507

          k =-0.5000-0.5000 0.6246 (  4484 PWs)   bands (ev):

   -20.3476 -20.3476  -9.1786  -9.1786  -9.1731  -9.1731   0.7211   0.7211
     0.9051   0.9051   0.9053   0.9053   0.9711   0.9711   3.1075   3.1075
     3.4243   3.4243   3.9169   3.9170

          k =-0.5000-0.5000 0.7207 (  4488 PWs)   bands (ev):

   -20.2394 -20.2394  -8.9955  -8.9955  -8.9900  -8.9900   0.9030   0.9030
     1.0991   1.0991   1.0993   1.0993   1.1656   1.1656   3.3020   3.3020
     3.6187   3.6187   4.1109   4.1110

          k =-0.5000-0.5000 0.8168 (  4496 PWs)   bands (ev):

   -20.1165 -20.1165  -8.7864  -8.7864  -8.7809  -8.7809   1.1105   1.1105
     1.3208   1.3208   1.3210   1.3210   1.3878   1.3878   3.5242   3.5242
     3.8410   3.8410   4.3326   4.3328

          k =-0.5000-0.5000 0.9129 (  4488 PWs)   bands (ev):

   -19.9791 -19.9791  -8.5515  -8.5515  -8.5459  -8.5459   1.3432   1.3432
     1.5702   1.5702   1.5704   1.5704   1.6378   1.6378   3.7742   3.7742
     4.0910   4.0910   4.5819   4.5821

          k =-0.5000-0.5000 1.0090 (  4464 PWs)   bands (ev):

   -19.8276 -19.8276  -8.2908  -8.2908  -8.2852  -8.2852   1.6008   1.6008
     1.8473   1.8473   1.8475   1.8475   1.9156   1.9156   4.0520   4.0520
     4.3688   4.3688   4.8590   4.8591

          k =-0.5000-0.5000 1.1051 (  4448 PWs)   bands (ev):

   -19.6625 -19.6625  -8.0044  -8.0044  -7.9988  -7.9988   1.8831   1.8831
     2.1521   2.1521   2.1523   2.1523   2.2212   2.2212   4.3576   4.3576
     4.6744   4.6744   5.1635   5.1636

          k =-0.5000-0.5000 1.2012 (  4472 PWs)   bands (ev):

   -19.4840 -19.4840  -7.6926  -7.6926  -7.6870  -7.6870   2.1894   2.1894
     2.4845   2.4845   2.4847   2.4847   2.5546   2.5546   4.6909   4.6909
     5.0077   5.0077   5.4956   5.4958

          k =-0.5000-0.5000 1.2973 (  4484 PWs)   bands (ev):

   -19.2928 -19.2928  -7.3555  -7.3555  -7.3498  -7.3498   2.5190   2.5190
     2.8447   2.8447   2.8449   2.8449   2.9157   2.9157   5.0521   5.0521
     5.3688   5.3688   5.8553   5.8555

          k =-0.5000-0.5000 1.3934 (  4476 PWs)   bands (ev):

   -19.0894 -19.0894  -6.9932  -6.9932  -6.9874  -6.9874   2.8711   2.8711
     3.2325   3.2325   3.2326   3.2326   3.3046   3.3046   5.4410   5.4410
     5.7578   5.7578   6.2424   6.2425

          k =-0.5000-0.5000 1.4895 (  4476 PWs)   bands (ev):

   -18.8743 -18.8743  -6.6060  -6.6060  -6.6002  -6.6002   3.2445   3.2445
     3.6479   3.6479   3.6481   3.6481   3.7214   3.7214   5.8577   5.8577
     6.1744   6.1744   6.6570   6.6571

          k =-0.5000-0.5000 1.5856 (  4468 PWs)   bands (ev):

   -18.6482 -18.6482  -6.1941  -6.1941  -6.1883  -6.1883   3.6374   3.6374
     4.0910   4.0910   4.0912   4.0912   4.1658   4.1658   6.3021   6.3021
     6.6189   6.6189   7.0986   7.0989

          k =-0.5000-0.5000 1.6817 (  4448 PWs)   bands (ev):

   -18.4119 -18.4119  -5.7579  -5.7579  -5.7520  -5.7520   4.0474   4.0474
     4.5616   4.5616   4.5618   4.5618   4.6381   4.6381   6.7744   6.7744
     7.0912   7.0912   7.5677   7.5678

          k =-0.5000-0.5000 1.7778 (  4456 PWs)   bands (ev):

   -18.1662 -18.1662  -5.2977  -5.2977  -5.2918  -5.2918   4.4711   4.4711
     5.0599   5.0599   5.0601   5.0601   5.1381   5.1381   7.2744   7.2744
     7.5912   7.5912   8.0634   8.0637

          k =-0.5000-0.5000 1.8739 (  4440 PWs)   bands (ev):

   -17.9120 -17.9120  -4.8140  -4.8140  -4.8079  -4.8079   4.9031   4.9031
     5.5858   5.5858   5.5860   5.5860   5.6660   5.6660   7.8022   7.8022
     8.1190   8.1190   8.5861   8.5864

          k =-0.5000-0.5000 1.9700 (  4424 PWs)   bands (ev):

   -17.6502 -17.6502  -4.3072  -4.3072  -4.3010  -4.3010   5.3355   5.3355
     6.1391   6.1391   6.1393   6.1393   6.2216   6.2216   8.3578   8.3578
     8.6746   8.6746   9.1051   9.1051

          k =-0.5000-0.5000 2.0661 (  4432 PWs)   bands (ev):

   -17.3820 -17.3820  -3.7779  -3.7779  -3.7716  -3.7716   5.7561   5.7561
     6.7200   6.7200   6.7202   6.7202   6.8050   6.8050   8.9411   8.9411
     9.2579   9.2579   9.4443   9.4443

          k =-0.5000-0.5000 2.1622 (  4424 PWs)   bands (ev):

   -17.1086 -17.1086  -3.2268  -3.2268  -3.2204  -3.2204   6.1463   6.1463
     7.3283   7.3283   7.3285   7.3285   7.4161   7.4161   9.5523   9.5523
     9.7516   9.7516   9.8691   9.8691

          k =-0.5000-0.5000 2.2583 (  4400 PWs)   bands (ev):

   -16.8312 -16.8312  -2.6547  -2.6547  -2.6483  -2.6483   6.4792   6.4792
     7.9640   7.9640   7.9642   7.9642   8.0551   8.0551  10.0348  10.0348
    10.1912  10.1912  10.5080  10.5080

          k =-0.5000-0.5000 2.3544 (  4400 PWs)   bands (ev):

   -16.5514 -16.5514  -2.0628  -2.0628  -2.0562  -2.0562   6.7220   6.7220
     8.6270   8.6270   8.6272   8.6272   8.7218   8.7218  10.3232  10.3232
    10.8579  10.8579  11.1747  11.1747

          k =-0.5000-0.5000 2.4505 (  4388 PWs)   bands (ev):

   -16.2706 -16.2706  -1.4521  -1.4521  -1.4454  -1.4454   6.8461   6.8461
     9.3171   9.3171   9.3173   9.3173   9.4163   9.4163  10.6587  10.6587
    11.5523  11.5523  11.8692  11.8692

          k =-0.5000-0.5000 2.5466 (  4380 PWs)   bands (ev):

   -15.9908 -15.9908  -0.8243  -0.8243  -0.8174  -0.8174   6.8428   6.8428
    10.0343  10.0343  10.0345  10.0345  10.1386  10.1386  11.0736  11.0736
    12.2746  12.2746  12.5914  12.5914

          k =-0.5000-0.5000 2.6427 (  4372 PWs)   bands (ev):

   -15.7137 -15.7137  -0.1812  -0.1812  -0.1741  -0.1741   6.7271   6.7271
    10.7782  10.7782  10.7785  10.7785  10.8887  10.8887  11.5769  11.5769
    13.0246  13.0246  13.3414  13.3414

          k =-0.5000-0.5000 2.7388 (  4356 PWs)   bands (ev):

   -15.4414 -15.4414   0.4749   0.4749   0.4822   0.4822   6.5281   6.5281
    11.5487  11.5487  11.5489  11.5489  11.6665  11.6665  12.1608  12.1608
    13.8024  13.8024  14.1192  14.1192

          k =-0.5000-0.5000 2.8349 (  4380 PWs)   bands (ev):

   -15.1763 -15.1763   1.1409   1.1409   1.1484   1.1484   6.2752   6.2752
    12.3451  12.3451  12.3454  12.3454  12.4721  12.4721  12.8120  12.8120
    14.6079  14.6079  14.9248  14.9248

          k =-0.5000-0.5000 2.9310 (  4372 PWs)   bands (ev):

   -14.9206 -14.9206   1.8130   1.8130   1.8208   1.8208   5.9928   5.9928
    13.1668  13.1668  13.1671  13.1671  13.3056  13.3056  13.5188  13.5188
    15.4413  15.4413  15.7581  15.7581

          k =-0.5000-0.5000 3.0271 (  4356 PWs)   bands (ev):

   -14.6772 -14.6772   2.4864   2.4864   2.4944   2.4944   5.6995   5.6995
    14.0125  14.0125  14.0128  14.0128  14.1667  14.1667  14.2722  14.2722
    16.3024  16.3024  16.6192  16.6192

          k =-0.5000-0.5000 3.1232 (  4344 PWs)   bands (ev):

   -14.4485 -14.4485   3.1546   3.1546   3.1629   3.1629   5.4091   5.4091
    14.8797  14.8797  14.8801  14.8801  15.0557  15.0557  15.0657  15.0657
    17.1913  17.1913  17.5081  17.5081

          k =-0.5000-0.5000 3.2193 (  4356 PWs)   bands (ev):

   -14.2376 -14.2376   3.8093   3.8093   3.8179   3.8179   5.1322   5.1322
    15.7638  15.7638  15.7643  15.7643  15.8945  15.8945  15.9725  15.9725
    18.1079  18.1079  18.2899  18.2911

          k =-0.5000-0.5000 3.3154 (  4344 PWs)   bands (ev):

   -14.0471 -14.0471   4.4396   4.4396   4.4486   4.4486   4.8772   4.8772
    16.6534  16.6534  16.6539  16.6539  16.7546  16.7546  16.9170  16.9170
    18.9396  18.9396  18.9412  18.9412

          k =-0.5000-0.5000 3.4115 (  4336 PWs)   bands (ev):

   -13.8800 -13.8800   4.6507   4.6507   5.0313   5.0313   5.0407   5.0407
    17.5155  17.5155  17.5162  17.5162  17.6424  17.6424  17.8893  17.8893
    19.4149  19.4149  19.4164  19.4164

          k =-0.5000-0.5000 3.5076 (  4348 PWs)   bands (ev):

   -13.7390 -13.7390   4.4582   4.4582   5.5662   5.5662   5.5761   5.5761
    18.2357  18.2357  18.2367  18.2367  18.5535  18.5535  18.8894  18.8894
    19.7493  19.7493  19.7501  19.7501

          k =-0.5000-0.5000 3.6037 (  4328 PWs)   bands (ev):

   -13.6265 -13.6265   4.3040   4.3040   6.0223   6.0223   6.0326   6.0326
    18.5617  18.5617  18.5627  18.5627  19.4809  19.4809  19.9172  19.9172
    20.2793  20.2793  20.2794  20.2794

          k =-0.5000-0.5000 3.6998 (  4340 PWs)   bands (ev):

   -13.5445 -13.5445   4.1914   4.1914   6.3746   6.3746   6.3853   6.3853
    18.5346  18.5346  18.5352  18.5352  20.4087  20.4087  20.9728  20.9728
    21.1196  21.1196  21.1196  21.1196

          k =-0.5000-0.5000 3.7959 (  4344 PWs)   bands (ev):

   -13.4947 -13.4947   4.1229   4.1229   6.5986   6.5986   6.6096   6.6096
    18.4328  18.4328  18.4329  18.4329  21.2817  21.2817  22.0561  22.0561
    22.0958  22.0958  22.0959  22.0959

          k =-0.5000-0.5000-3.8920 (  4320 PWs)   bands (ev):

   -13.4779 -13.4779   4.0999   4.0999   6.6756   6.6756   6.6867   6.6867
    18.3878  18.3878  18.3878  18.3878  21.7769  21.7769  22.9666  22.9666
    22.9669  22.9669  23.1479  23.1479

     the Fermi energy is    -4.4308 ev
     (compare with:    -4.5967 eV, computed in scf)

     Writing all to output data dir ./outdir/soc.save/

     init_run     :      0.45s CPU      0.47s WALL (       1 calls)
     electrons    :    202.90s CPU    204.19s WALL (       1 calls)

     Called by init_run:
     wfcinit      :      0.00s CPU      0.00s WALL (       1 calls)
     potinit      :      0.07s CPU      0.08s WALL (       1 calls)
     hinit0       :      0.29s CPU      0.29s WALL (       1 calls)

     Called by electrons:
     c_bands      :    202.90s CPU    204.18s WALL (       1 calls)
     v_of_rho     :      0.03s CPU      0.04s WALL (       1 calls)
     newd         :      0.05s CPU      0.06s WALL (       1 calls)
     PAW_pot      :      0.03s CPU      0.03s WALL (       1 calls)

     Called by c_bands:
     init_us_2    :      0.02s CPU      0.03s WALL (      41 calls)
     init_us_2:cp :      0.02s CPU      0.03s WALL (      41 calls)
     cegterg      :    197.99s CPU    199.17s WALL (     141 calls)

     Called by *egterg:
     cdiaghg      :      1.44s CPU      1.44s WALL (    2332 calls)
     h_psi        :     96.40s CPU     97.01s WALL (    2473 calls)
     s_psi        :      5.65s CPU      5.84s WALL (    2473 calls)
     g_psi        :      0.71s CPU      0.71s WALL (    2291 calls)

     Called by h_psi:
     h_psi:calbec :      5.83s CPU      5.84s WALL (    2473 calls)
     vloc_psi     :     83.83s CPU     84.27s WALL (    2473 calls)
     add_vuspsi   :      5.97s CPU      5.98s WALL (    2473 calls)

     General routines
     calbec       :      5.82s CPU      5.84s WALL (    2473 calls)
     fft          :      0.10s CPU      0.10s WALL (      15 calls)
     fftw         :     68.36s CPU     68.72s WALL (   94848 calls)
     davcio       :      0.04s CPU      0.11s WALL (      82 calls)

     Parallel routines

     PWSCF        :   3m23.51s CPU   3m24.99s WALL


   This run was terminated on:   1:40: 3   2Jun2023            

=------------------------------------------------------------------------------=
   JOB DONE.
=------------------------------------------------------------------------------=
