
     Program PWSCF v.7.2 starts on  2Jun2023 at  2: 4: 0 

     This program is part of the open-source Quantum ESPRESSO suite
     for quantum simulation of materials; please cite
         "P. Giannozzi et al., J. Phys.:Condens. Matter 21 395502 (2009);
         "P. Giannozzi et al., J. Phys.:Condens. Matter 29 465901 (2017);
         "P. Giannozzi et al., J. Chem. Phys. 152 154105 (2020);
          URL http://www.quantum-espresso.org", 
     in publications or presentations arising from this work. More details at
     http://www.quantum-espresso.org/quote

     Parallel version (MPI), running on     1 processors

     MPI processes distributed on     1 nodes
     128 MiB available memory on the printing compute node when the environment starts

     Reading input from 5_c.bands_all.in

     Current dimensions of program PWSCF are:
     Max number of different atomic species (ntypx) = 10
     Max number of k-points (npk) =  40000
     Max angular momentum in pseudopotentials (lmaxx) =  4
     file C.rel-pbe-n-kjpaw_psl.1.0.0.UPF: wavefunction(s)  2S 2P 2P renormalized

     Atomic positions and unit cell read from directory:
     ./outdir/soc.save/


     Subspace diagonalization in iterative solution of the eigenvalue problem:
     a serial algorithm will be used


     G-vector sticks info
     --------------------
     sticks:   dense  smooth     PW     G-vecs:    dense   smooth      PW
     Sum        5129    5129   1813                35379    35379    7347

     Using Slab Decomposition



     bravais-lattice index     =            6
     lattice parameter (alat)  =      18.8973  a.u.
     unit-cell volume          =     866.9585 (a.u.)^3
     number of atoms/cell      =            1
     number of atomic types    =            1
     number of electrons       =         4.00
     number of Kohn-Sham states=           20
     kinetic-energy cutoff     =      45.0000  Ry
     charge density cutoff     =     180.0000  Ry
     Exchange-correlation= SLA  PW   PBX  PBC
                           (   1   4   3   4   0   0   0)
     Non magnetic calculation with spin-orbit


     celldm(1)=  18.897261  celldm(2)=   1.000000  celldm(3)=   0.128470
     celldm(4)=   0.000000  celldm(5)=   0.000000  celldm(6)=   0.000000

     crystal axes: (cart. coord. in units of alat)
               a(1) = (   1.000000   0.000000   0.000000 )  
               a(2) = (   0.000000   1.000000   0.000000 )  
               a(3) = (   0.000000   0.000000   0.128470 )  

     reciprocal axes: (cart. coord. in units 2 pi/alat)
               b(1) = (  1.000000  0.000000  0.000000 )  
               b(2) = (  0.000000  1.000000  0.000000 )  
               b(3) = (  0.000000  0.000000  7.783918 )  


     PseudoPot. # 1 for C  read from file:
     ./C.rel-pbe-n-kjpaw_psl.1.0.0.UPF
     MD5 check sum: dd2b8f743de1f3a10095e4114fb28074
     Pseudo is Projector augmented-wave + core cor, Zval =  4.0
     Generated using &quot;atomic&quot; code by A. Dal Corso  v.6.3
     Shape of augmentation charge: PSQ
     Using radial grid of 1073 points,  6 beta functions with: 
                l(1) =   0
                l(2) =   0
                l(3) =   1
                l(4) =   1
                l(5) =   1
                l(6) =   1
     Q(r) pseudized with 0 coefficients 


     atomic species   valence    mass     pseudopotential
        C              4.00    12.01100     C ( 1.00)

     16 Sym. Ops., with inversion, found



   Cartesian axes

     site n.     atom                  positions (alat units)
         1           C   tau(   1) = (   0.0000000   0.0000000   0.0000000  )

     number of k points=    31  Methfessel-Paxton smearing, width (Ry)=  0.0100
                       cart. coord. in units 2pi/alat
        k(    1) = (   0.0000000   0.0000000   0.0000000), wk =   0.0322581
        k(    2) = (   0.0000000   0.0000000   0.1297320), wk =   0.0322581
        k(    3) = (   0.0000000   0.0000000   0.2594639), wk =   0.0322581
        k(    4) = (   0.0000000   0.0000000   0.3891959), wk =   0.0322581
        k(    5) = (   0.0000000   0.0000000   0.5189279), wk =   0.0322581
        k(    6) = (   0.0000000   0.0000000   0.6486599), wk =   0.0322581
        k(    7) = (   0.0000000   0.0000000   0.7783918), wk =   0.0322581
        k(    8) = (   0.0000000   0.0000000   0.9081238), wk =   0.0322581
        k(    9) = (   0.0000000   0.0000000   1.0378558), wk =   0.0322581
        k(   10) = (   0.0000000   0.0000000   1.1675878), wk =   0.0322581
        k(   11) = (   0.0000000   0.0000000   1.2973197), wk =   0.0322581
        k(   12) = (   0.0000000   0.0000000   1.4270517), wk =   0.0322581
        k(   13) = (   0.0000000   0.0000000   1.5567837), wk =   0.0322581
        k(   14) = (   0.0000000   0.0000000   1.6865157), wk =   0.0322581
        k(   15) = (   0.0000000   0.0000000   1.8162476), wk =   0.0322581
        k(   16) = (   0.0000000   0.0000000   1.9459796), wk =   0.0322581
        k(   17) = (   0.0000000   0.0000000   2.0757116), wk =   0.0322581
        k(   18) = (   0.0000000   0.0000000   2.2054436), wk =   0.0322581
        k(   19) = (   0.0000000   0.0000000   2.3351755), wk =   0.0322581
        k(   20) = (   0.0000000   0.0000000   2.4649075), wk =   0.0322581
        k(   21) = (   0.0000000   0.0000000   2.5946395), wk =   0.0322581
        k(   22) = (   0.0000000   0.0000000   2.7243714), wk =   0.0322581
        k(   23) = (   0.0000000   0.0000000   2.8541034), wk =   0.0322581
        k(   24) = (   0.0000000   0.0000000   2.9838354), wk =   0.0322581
        k(   25) = (   0.0000000   0.0000000   3.1135674), wk =   0.0322581
        k(   26) = (   0.0000000   0.0000000   3.2432993), wk =   0.0322581
        k(   27) = (   0.0000000   0.0000000   3.3730313), wk =   0.0322581
        k(   28) = (   0.0000000   0.0000000   3.5027633), wk =   0.0322581
        k(   29) = (   0.0000000   0.0000000   3.6324953), wk =   0.0322581
        k(   30) = (   0.0000000   0.0000000   3.7622272), wk =   0.0322581
        k(   31) = (   0.0000000   0.0000000   3.8919592), wk =   0.0322581

     Dense  grid:    35379 G-vectors     FFT dimensions: (  81,  81,  12)

     Estimated max dynamical RAM per process >      87.70 MB

     Check: negative core charge=   -0.000012

     The potential is recalculated from file :
     ./outdir/soc.save/charge-density


     negative rho (up, down):  7.628E-04 0.000E+00
     Starting wfcs are    8 randomized atomic wfcs +   12 random wfcs
     Checking if some PAW data can be deallocated... 

     Band Structure Calculation
     Davidson diagonalization with overlap

     ethr =  2.50E-08,  avg # of iterations = 48.1

     total cpu time spent up to now is      168.3 secs

     End of band structure calculation

          k = 0.0000 0.0000 0.0000 (  4501 PWs)   bands (ev):

   -20.6776 -20.6776  -9.7322  -9.7322  -9.7268  -9.7268  -0.5087  -0.5087
     0.9772   0.9772   1.0347   1.0347   1.0350   1.0350   1.2374   1.2374
     2.0995   2.0995   2.5871   2.5873

          k = 0.0000 0.0000 0.1297 (  4481 PWs)   bands (ev):

   -20.6633 -20.6633  -9.7083  -9.7083  -9.7029  -9.7029  -0.4840  -0.4840
     1.0025   1.0025   1.0599   1.0599   1.0602   1.0602   1.2617   1.2617
     2.1248   2.1248   2.6123   2.6124

          k = 0.0000 0.0000 0.2595 (  4501 PWs)   bands (ev):

   -20.6203 -20.6203  -9.6366  -9.6366  -9.6311  -9.6311  -0.4099  -0.4099
     1.0785   1.0785   1.1356   1.1356   1.1359   1.1359   1.3346   1.3346
     2.2007   2.2007   2.6878   2.6881

          k = 0.0000 0.0000 0.3892 (  4501 PWs)   bands (ev):

   -20.5489 -20.5489  -9.5171  -9.5171  -9.5117  -9.5117  -0.2864  -0.2864
     1.2050   1.2050   1.2617   1.2617   1.2620   1.2620   1.4560   1.4560
     2.3273   2.3273   2.8140   2.8141

          k = 0.0000 0.0000 0.5189 (  4501 PWs)   bands (ev):

   -20.4493 -20.4493  -9.3499  -9.3499  -9.3445  -9.3445  -0.1136  -0.1136
     1.3822   1.3822   1.4382   1.4382   1.4385   1.4385   1.6257   1.6257
     2.5045   2.5045   2.9905   2.9906

          k = 0.0000 0.0000 0.6487 (  4465 PWs)   bands (ev):

   -20.3219 -20.3219  -9.1352  -9.1352  -9.1298  -9.1298   0.1083   0.1083
     1.6101   1.6101   1.6651   1.6651   1.6654   1.6654   1.8437   1.8437
     2.7323   2.7323   3.2174   3.2176

          k = 0.0000 0.0000 0.7784 (  4477 PWs)   bands (ev):

   -20.1674 -20.1674  -8.8731  -8.8731  -8.8676  -8.8676   0.3792   0.3792
     1.8885   1.8885   1.9425   1.9425   1.9428   1.9428   2.1096   2.1096
     3.0108   3.0108   3.4948   3.4950

          k = 0.0000 0.0000 0.9081 (  4453 PWs)   bands (ev):

   -19.9863 -19.9863  -8.5638  -8.5638  -8.5583  -8.5583   0.6987   0.6987
     2.2176   2.2176   2.2702   2.2702   2.2705   2.2705   2.4230   2.4230
     3.3399   3.3399   3.8225   3.8227

          k = 0.0000 0.0000 1.0379 (  4481 PWs)   bands (ev):

   -19.7795 -19.7795  -8.2075  -8.2075  -8.2019  -8.2019   1.0666   1.0666
     2.5973   2.5973   2.6483   2.6483   2.6486   2.6486   2.7835   2.7835
     3.7196   3.7196   4.2006   4.2008

          k = 0.0000 0.0000 1.1676 (  4473 PWs)   bands (ev):

   -19.5480 -19.5480  -7.8046  -7.8046  -7.7990  -7.7990   1.4823   1.4823
     3.0277   3.0277   3.0768   3.0768   3.0771   3.0771   3.1901   3.1901
     4.1499   4.1499   4.6290   4.6291

          k = 0.0000 0.0000 1.2973 (  4453 PWs)   bands (ev):

   -19.2928 -19.2928  -7.3554  -7.3554  -7.3497  -7.3497   1.9449   1.9449
     3.5087   3.5087   3.5555   3.5555   3.5558   3.5558   3.6419   3.6419
     4.6309   4.6309   5.1077   5.1079

          k = 0.0000 0.0000 1.4271 (  4469 PWs)   bands (ev):

   -19.0154 -19.0154  -6.8604  -6.8604  -6.8547  -6.8547   2.4532   2.4532
     4.0403   4.0403   4.0845   4.0845   4.0849   4.0849   4.1373   4.1373
     5.1625   5.1625   5.6367   5.6368

          k = 0.0000 0.0000 1.5568 (  4445 PWs)   bands (ev):

   -18.7171 -18.7171  -6.3202  -6.3202  -6.3144  -6.3144   3.0053   3.0053
     4.6225   4.6225   4.6637   4.6637   4.6641   4.6641   4.6739   4.6739
     5.7447   5.7447   6.2159   6.2161

          k = 0.0000 0.0000 1.6865 (  4453 PWs)   bands (ev):

   -18.3998 -18.3998  -5.7354  -5.7354  -5.7295  -5.7295   3.5980   3.5980
     5.2481   5.2481   5.2554   5.2554   5.2931   5.2931   5.2934   5.2934
     6.3776   6.3776   6.8452   6.8453

          k = 0.0000 0.0000 1.8162 (  4437 PWs)   bands (ev):

   -18.0655 -18.0655  -5.1070  -5.1070  -5.1010  -5.1010   4.2253   4.2253
     5.8544   5.8544   5.9389   5.9389   5.9725   5.9725   5.9728   5.9728
     7.0610   7.0610   7.5247   7.5248

          k = 0.0000 0.0000 1.9460 (  4429 PWs)   bands (ev):

   -17.7163 -17.7163  -4.4360  -4.4360  -4.4299  -4.4299   4.8762   4.8762
     6.4843   6.4843   6.6730   6.6730   6.7018   6.7018   6.7021   6.7021
     7.7952   7.7952   8.2540   8.2541

          k = 0.0000 0.0000 2.0757 (  4425 PWs)   bands (ev):

   -17.3549 -17.3549  -3.7237  -3.7237  -3.7175  -3.7175   5.5277   5.5277
     7.1266   7.1266   7.4578   7.4578   7.4808   7.4808   7.4811   7.4811
     8.5799   8.5799   8.9596   8.9596

          k = 0.0000 0.0000 2.2054 (  4433 PWs)   bands (ev):

   -16.9842 -16.9842  -2.9719  -2.9719  -2.9655  -2.9655   6.1316   6.1316
     7.7734   7.7734   8.2932   8.2932   8.3093   8.3093   8.3097   8.3097
     9.4152   9.4152   9.6389   9.6389

          k = 0.0000 0.0000 2.3352 (  4417 PWs)   bands (ev):

   -16.6074 -16.6074  -2.1827  -2.1827  -2.1761  -2.1761   6.5981   6.5981
     8.4403   8.4403   9.1792   9.1792   9.1871   9.1871   9.1875   9.1875
    10.3012  10.3012  10.3393  10.3393

          k = 0.0000 0.0000 2.4649 (  4409 PWs)   bands (ev):

   -16.2285 -16.2285  -1.3590  -1.3590  -1.3522  -1.3522   6.8249   6.8249
     9.1754   9.1754  10.1135  10.1135  10.1139  10.1139  10.1158  10.1158
    11.0856  11.0856  11.2379  11.2379

          k = 0.0000 0.0000 2.5946 (  4397 PWs)   bands (ev):

   -15.8517 -15.8517  -0.5045  -0.5045  -0.4975  -0.4975   6.7896   6.7896
    10.0120  10.0120  11.0880  11.0880  11.0884  11.0884  11.1031  11.1031
    11.9057  11.9057  12.2251  12.2251

          k = 0.0000 0.0000 2.7244 (  4373 PWs)   bands (ev):

   -15.4818 -15.4818   0.3758   0.3758   0.3830   0.3830   6.5601   6.5601
    10.9446  10.9446  12.1092  12.1092  12.1097  12.1097  12.1410  12.1410
    12.8086  12.8086  13.2630  13.2630

          k = 0.0000 0.0000 2.8541 (  4369 PWs)   bands (ev):

   -15.1243 -15.1243   1.2750   1.2750   1.2825   1.2825   6.2199   6.2199
    11.9568  11.9568  13.1752  13.1752  13.1757  13.1757  13.2295  13.2295
    13.7888  13.7888  14.3514  14.3514

          k = 0.0000 0.0000 2.9838 (  4333 PWs)   bands (ev):

   -14.7850 -14.7850   2.1836   2.1836   2.1915   2.1915   5.8317   5.8317
    13.0361  13.0361  14.2820  14.2820  14.2825  14.2825  14.3687  14.3687
    14.8378  14.8378  15.4905  15.4905

          k = 0.0000 0.0000 3.1136 (  4313 PWs)   bands (ev):

   -14.4706 -14.4706   3.0883   3.0883   3.0966   3.0966   5.4376   5.4376
    14.1750  14.1750  15.4211  15.4211  15.4217  15.4217  15.5584  15.5584
    15.9483  15.9483  16.6803  16.6803

          k = 0.0000 0.0000 3.2433 (  4310 PWs)   bands (ev):

   -14.1879 -14.1879   3.9697   3.9697   3.9784   3.9784   5.0661   5.0661
    15.3685  15.3685  16.5708  16.5708  16.5716  16.5716  16.7988  16.7988
    17.1145  17.1145  17.9206  17.9206

          k = 0.0000 0.0000 3.3730 (  4302 PWs)   bands (ev):

   -13.9439 -13.9439   4.7375   4.7375   4.8004   4.8004   4.8096   4.8096
    16.6128  16.6128  17.6610  17.6610  17.6621  17.6621  18.0899  18.0899
    18.3315  18.3315  19.2115  19.2115

          k = 0.0000 0.0000 3.5028 (  4342 PWs)   bands (ev):

   -13.7454 -13.7454   4.4669   4.4669   5.5411   5.5411   5.5510   5.5510
    17.9035  17.9035  18.4472  18.4472  18.4486  18.4486  19.4315  19.4315
    19.5925  19.5925  20.2014  20.2016

          k = 0.0000 0.0000 3.6325 (  4334 PWs)   bands (ev):

   -13.5986 -13.5986   4.2657   4.2657   6.1400   6.1400   6.1505   6.1505
    18.6137  18.6137  18.6146  18.6146  19.2328  19.2328  20.8238  20.8238
    20.8831  20.8831  21.2375  21.2375

          k = 0.0000 0.0000 3.7622 (  4330 PWs)   bands (ev):

   -13.5084 -13.5084   4.1417   4.1417   6.5362   6.5362   6.5471   6.5471
    18.4715  18.4715  18.4717  18.4717  20.5743  20.5743  22.1311  22.1311
    22.2666  22.2666  22.4846  22.4846

          k = 0.0000 0.0000 3.8920 (  4334 PWs)   bands (ev):

   -13.4779 -13.4779   4.0999   4.0999   6.6756   6.6756   6.6867   6.6867
    18.3900  18.3900  18.3900  18.3900  21.5769  21.5769  22.3873  22.3873
    23.3465  23.3465  23.5863  23.5865

     Writing all to output data dir ./outdir/soc.save/

     init_run     :      0.56s CPU      0.71s WALL (       1 calls)
     electrons    :    166.41s CPU    167.45s WALL (       1 calls)

     Called by init_run:
     wfcinit      :      0.00s CPU      0.00s WALL (       1 calls)
     potinit      :      0.14s CPU      0.19s WALL (       1 calls)
     hinit0       :      0.30s CPU      0.33s WALL (       1 calls)

     Called by electrons:
     c_bands      :    166.41s CPU    167.45s WALL (       1 calls)
     v_of_rho     :      0.06s CPU      0.07s WALL (       1 calls)
     newd         :      0.09s CPU      0.15s WALL (       1 calls)
     PAW_pot      :      0.07s CPU      0.08s WALL (       1 calls)

     Called by c_bands:
     init_us_2    :      0.01s CPU      0.02s WALL (      31 calls)
     init_us_2:cp :      0.01s CPU      0.02s WALL (      31 calls)
     cegterg      :    162.47s CPU    163.40s WALL (      92 calls)

     Called by *egterg:
     cdiaghg      :      0.97s CPU      0.99s WALL (    1522 calls)
     h_psi        :     76.88s CPU     77.45s WALL (    1614 calls)
     s_psi        :      4.60s CPU      4.73s WALL (    1614 calls)
     g_psi        :      0.59s CPU      0.59s WALL (    1491 calls)

     Called by h_psi:
     h_psi:calbec :      4.67s CPU      4.68s WALL (    1614 calls)
     vloc_psi     :     66.81s CPU     67.24s WALL (    1614 calls)
     add_vuspsi   :      4.86s CPU      4.87s WALL (    1614 calls)

     General routines
     calbec       :      4.66s CPU      4.68s WALL (    1614 calls)
     fft          :      0.13s CPU      0.14s WALL (      15 calls)
     fftw         :     54.62s CPU     54.97s WALL (   76152 calls)
     davcio       :      0.03s CPU      0.08s WALL (      62 calls)

     Parallel routines

     PWSCF        :   2m47.17s CPU   2m48.49s WALL


   This run was terminated on:   2: 6:49   2Jun2023            

=------------------------------------------------------------------------------=
   JOB DONE.
=------------------------------------------------------------------------------=
