
     Program BANDS v.7.2 starts on  2Jun2023 at  2: 7:30 

     This program is part of the open-source Quantum ESPRESSO suite
     for quantum simulation of materials; please cite
         "P. Giannozzi et al., J. Phys.:Condens. Matter 21 395502 (2009);
         "P. Giannozzi et al., J. Phys.:Condens. Matter 29 465901 (2017);
         "P. Giannozzi et al., J. Chem. Phys. 152 154105 (2020);
          URL http://www.quantum-espresso.org", 
     in publications or presentations arising from this work. More details at
     http://www.quantum-espresso.org/quote

     Parallel version (MPI), running on     1 processors

     MPI processes distributed on     1 nodes
     121 MiB available memory on the printing compute node when the environment starts


     Reading xml data from directory:

     ./outdir/soc.save/
     file C.rel-pbe-n-kjpaw_psl.1.0.0.UPF: wavefunction(s)  2S 2P 2P renormalized

     IMPORTANT: XC functional enforced from input :
     Exchange-correlation= PBE
                           (   1   4   3   4   0   0   0)
     Any further DFT definition will be discarded
     Please, verify this is what you really want


     G-vector sticks info
     --------------------
     sticks:   dense  smooth     PW     G-vecs:    dense   smooth      PW
     Sum        5129    5129   1813                35379    35379    7347

     Using Slab Decomposition


     Check: negative core charge=   -0.000012

     negative rho (up, down):  7.628E-04 0.000E+00
     Reading collected, re-writing distributed wavefunctions
     high-symmetry point:  0.0000 0.0000 0.0000   x coordinate   0.0000
     high-symmetry point:  0.0000 0.0000 3.8920   x coordinate   3.8920

     Plottable bands (eV) written to file 6_c.bands_pp.dat.gnu
     Bands written to file 6_c.bands_pp.dat

 **************************************************************************

                    xk=(   0.00000,   0.00000,   0.00000  )

     double point group D_4h(4/mmm)
     there are 14 classes and  4 irreducible representations
     the character table:

       E     -E    2C4   -2C4   C2    2C2' 2C2'' i     -i    2S4   -2S4   s_h 
                               -C2   -2C2' -2C2'                         -s_h 
G_6+   2.00 -2.00  1.41 -1.41  0.00  0.00  0.00  2.00 -2.00  1.41 -1.41  0.00
G_7+   2.00 -2.00 -1.41  1.41  0.00  0.00  0.00  2.00 -2.00 -1.41  1.41  0.00
G_6-   2.00 -2.00  1.41 -1.41  0.00  0.00  0.00 -2.00  2.00 -1.41  1.41  0.00
G_7-   2.00 -2.00 -1.41  1.41  0.00  0.00  0.00 -2.00  2.00  1.41 -1.41  0.00

        2s_v  2s_d
       -2s_v -2s_d
G_6+   0.00  0.00
G_7+   0.00  0.00
G_6-   0.00  0.00
G_7-   0.00  0.00

     the symmetry operations in each class and the name of the first element:

     E             1
                                                                 
     -E           -1
                                                                 
     2C4           7    8
                                                                 
     -2C4         -7   -8
                                                                 
      C2  -C2      2   -2
                                                                 
      2C2'-2C2'    3   -3    4   -4
                                                                 
     2C2''-2C2'    5   -5   -6    6
                                                                 
     i             9
                                                                 
     -i           -9
                                                                 
     2S4          15   16
                                                                 
     -2S4        -15  -16
                                                                 
      s_h -s_h    10  -10
                                                                 
      2s_v-2s_v   11  -11   12  -12
                                                                 
      2s_d-2s_d   13  -13  -14   14
                                                                 

     Band symmetry, D_4h(4/mmm) double point group:

     e(  1 -  2) =    -20.67765  eV     2   --> G_6+  M_6+     
     e(  3 -  4) =     -9.73219  eV     2   --> G_6-  M_6-     
     e(  5 -  6) =     -9.72677  eV     2   --> G_7-  M_7-     
     e(  7 -  8) =     -0.50874  eV     2   --> G_6+  M_6+     
     e(  9 - 10) =      0.97720  eV     2   --> G_7+  M_7+     
     e( 11 - 12) =      1.03470  eV     2   --> G_6-  M_6-     
     e( 13 - 14) =      1.03500  eV     2   --> G_7-  M_7-     
     e( 15 - 16) =      1.23736  eV     2   --> G_6+  M_6+     
     e( 17 - 18) =      2.09945  eV     2   --> G_7+  M_7+     
     e( 19 - 19) =      2.58706  eV     1   -->   ?
     e( 20 - 20) =      2.58725  eV     1   -->   ?

 **************************************************************************

 **************************************************************************

                    xk=(   0.00000,   0.00000,   0.12973  )

     double point group C_4v (4mm) 
     there are  7 classes and  2 irreducible representations
     the character table:

       E     -E    2C4   -2C4   C2    2s_v  2s_d
                               -C2   -2s_v -2s_d
G_6    2.00 -2.00  1.41 -1.41  0.00  0.00  0.00
G_7    2.00 -2.00 -1.41  1.41  0.00  0.00  0.00

     the symmetry operations in each class and the name of the first element:

     E             1
                                                                 
     -E           -1
                                                                 
     2C4           3    4
                                                                 
     -2C4         -3   -4
                                                                 
      C2  -C2      2   -2
                                                                 
      2s_v-2s_v    5   -5    6   -6
                                                                 
      2s_d-2s_d    7   -7    8   -8
                                                                 

     Band symmetry, C_4v (4mm)  double point group:

     e(  1 -  2) =    -20.66329  eV     2   --> G_6   D_6      
     e(  3 -  4) =     -9.70828  eV     2   --> G_6   D_6      
     e(  5 -  6) =     -9.70286  eV     2   --> G_7   D_7      
     e(  7 -  8) =     -0.48403  eV     2   --> G_6   D_6      
     e(  9 - 10) =      1.00252  eV     2   --> G_7   D_7      
     e( 11 - 12) =      1.05993  eV     2   --> G_6   D_6      
     e( 13 - 14) =      1.06022  eV     2   --> G_7   D_7      
     e( 15 - 16) =      1.26166  eV     2   --> G_6   D_6      
     e( 17 - 18) =      2.12477  eV     2   --> G_7   D_7      
     e( 19 - 20) =      2.61234  eV     2   -->   ?

 **************************************************************************

 **************************************************************************

                    xk=(   0.00000,   0.00000,   0.25946  )

     Band symmetry, C_4v (4mm)  double point group:

     e(  1 -  2) =    -20.62033  eV     2   --> G_6   D_6      
     e(  3 -  4) =     -9.63656  eV     2   --> G_6   D_6      
     e(  5 -  6) =     -9.63114  eV     2   --> G_7   D_7      
     e(  7 -  8) =     -0.40990  eV     2   --> G_6   D_6      
     e(  9 - 10) =      1.07846  eV     2   --> G_7   D_7      
     e( 11 - 12) =      1.13558  eV     2   --> G_6   D_6      
     e( 13 - 14) =      1.13588  eV     2   --> G_7   D_7      
     e( 15 - 16) =      1.33455  eV     2   --> G_6   D_6      
     e( 17 - 18) =      2.20071  eV     2   --> G_7   D_7      
     e( 19 - 19) =      2.68785  eV     1   -->   ?
     e( 20 - 20) =      2.68808  eV     1   -->   ?

 **************************************************************************

 **************************************************************************

                    xk=(   0.00000,   0.00000,   0.38920  )

     Band symmetry, C_4v (4mm)  double point group:

     e(  1 -  2) =    -20.54889  eV     2   --> G_6   D_6      
     e(  3 -  4) =     -9.51709  eV     2   --> G_6   D_6      
     e(  5 -  6) =     -9.51165  eV     2   --> G_7   D_7      
     e(  7 -  8) =     -0.28641  eV     2   --> G_6   D_6      
     e(  9 - 10) =      1.20504  eV     2   --> G_7   D_7      
     e( 11 - 12) =      1.26168  eV     2   --> G_6   D_6      
     e( 13 - 14) =      1.26198  eV     2   --> G_7   D_7      
     e( 15 - 16) =      1.45596  eV     2   --> G_6   D_6      
     e( 17 - 18) =      2.32728  eV     2   --> G_7   D_7      
     e( 19 - 20) =      2.81405  eV     2   -->   ?

 **************************************************************************

 **************************************************************************

                    xk=(   0.00000,   0.00000,   0.51893  )

     Band symmetry, C_4v (4mm)  double point group:

     e(  1 -  2) =    -20.44929  eV     2   --> G_6   D_6      
     e(  3 -  4) =     -9.34995  eV     2   --> G_6   D_6      
     e(  5 -  6) =     -9.34449  eV     2   --> G_7   D_7      
     e(  7 -  8) =     -0.11364  eV     2   --> G_6   D_6      
     e(  9 - 10) =      1.38224  eV     2   --> G_7   D_7      
     e( 11 - 12) =      1.43821  eV     2   --> G_6   D_6      
     e( 13 - 14) =      1.43850  eV     2   --> G_7   D_7      
     e( 15 - 16) =      1.62575  eV     2   --> G_6   D_6      
     e( 17 - 18) =      2.50448  eV     2   --> G_7   D_7      
     e( 19 - 19) =      2.99048  eV     1   -->   ?
     e( 20 - 20) =      2.99064  eV     1   -->   ?

 **************************************************************************

 **************************************************************************

                    xk=(   0.00000,   0.00000,   0.64866  )

     Band symmetry, C_4v (4mm)  double point group:

     e(  1 -  2) =    -20.32193  eV     2   --> G_6   D_6      
     e(  3 -  4) =     -9.13523  eV     2   --> G_6   D_6      
     e(  5 -  6) =     -9.12975  eV     2   --> G_7   D_7      
     e(  7 -  8) =      0.10828  eV     2   --> G_6   D_6      
     e(  9 - 10) =      1.61007  eV     2   --> G_7   D_7      
     e( 11 - 12) =      1.66515  eV     2   --> G_6   D_6      
     e( 13 - 14) =      1.66545  eV     2   --> G_7   D_7      
     e( 15 - 16) =      1.84373  eV     2   --> G_6   D_6      
     e( 17 - 18) =      2.73231  eV     2   --> G_7   D_7      
     e( 19 - 19) =      3.21742  eV     1   -->   ?
     e( 20 - 20) =      3.21764  eV     1   -->   ?

 **************************************************************************

 **************************************************************************

                    xk=(   0.00000,   0.00000,   0.77839  )

     Band symmetry, C_4v (4mm)  double point group:

     e(  1 -  2) =    -20.16739  eV     2   --> G_6   D_6      
     e(  3 -  4) =     -8.87312  eV     2   --> G_6   D_6      
     e(  5 -  6) =     -8.86761  eV     2   --> G_7   D_7      
     e(  7 -  8) =      0.37916  eV     2   --> G_6   D_6      
     e(  9 - 10) =      1.88854  eV     2   --> G_7   D_7      
     e( 11 - 12) =      1.94250  eV     2   --> G_6   D_6      
     e( 13 - 14) =      1.94280  eV     2   --> G_7   D_7      
     e( 15 - 16) =      2.10962  eV     2   --> G_6   D_6      
     e( 17 - 18) =      3.01077  eV     2   --> G_7   D_7      
     e( 19 - 19) =      3.49475  eV     1   -->   ?
     e( 20 - 20) =      3.49497  eV     1   -->   ?

 **************************************************************************

 **************************************************************************

                    xk=(   0.00000,   0.00000,   0.90812  )

     Band symmetry, C_4v (4mm)  double point group:

     e(  1 -  2) =    -19.98629  eV     2   --> G_6   D_6      
     e(  3 -  4) =     -8.56381  eV     2   --> G_6   D_6      
     e(  5 -  6) =     -8.55826  eV     2   --> G_7   D_7      
     e(  7 -  8) =      0.69873  eV     2   --> G_6   D_6      
     e(  9 - 10) =      2.21763  eV     2   --> G_7   D_7      
     e( 11 - 12) =      2.27024  eV     2   --> G_6   D_6      
     e( 13 - 14) =      2.27054  eV     2   --> G_7   D_7      
     e( 15 - 16) =      2.42305  eV     2   --> G_6   D_6      
     e( 17 - 18) =      3.33985  eV     2   --> G_7   D_7      
     e( 19 - 19) =      3.82246  eV     1   -->   ?
     e( 20 - 20) =      3.82269  eV     1   -->   ?

 **************************************************************************

 **************************************************************************

                    xk=(   0.00000,   0.00000,   1.03786  )

     Band symmetry, C_4v (4mm)  double point group:

     e(  1 -  2) =    -19.77952  eV     2   --> G_6   D_6      
     e(  3 -  4) =     -8.20754  eV     2   --> G_6   D_6      
     e(  5 -  6) =     -8.20195  eV     2   --> G_7   D_7      
     e(  7 -  8) =      1.06661  eV     2   --> G_6   D_6      
     e(  9 - 10) =      2.59735  eV     2   --> G_7   D_7      
     e( 11 - 12) =      2.64834  eV     2   --> G_6   D_6      
     e( 13 - 14) =      2.64865  eV     2   --> G_7   D_7      
     e( 15 - 16) =      2.78346  eV     2   --> G_6   D_6      
     e( 17 - 18) =      3.71957  eV     2   --> G_7   D_7      
     e( 19 - 19) =      4.20057  eV     1   -->   ?
     e( 20 - 20) =      4.20079  eV     1   -->   ?

 **************************************************************************

 **************************************************************************

                    xk=(   0.00000,   0.00000,   1.16759  )

     Band symmetry, C_4v (4mm)  double point group:

     e(  1 -  2) =    -19.54798  eV     2   --> G_6   D_6      
     e(  3 -  4) =     -7.80461  eV     2   --> G_6   D_6      
     e(  5 -  6) =     -7.79898  eV     2   --> G_7   D_7      
     e(  7 -  8) =      1.48226  eV     2   --> G_6   D_6      
     e(  9 - 10) =      3.02770  eV     2   --> G_7   D_7      
     e( 11 - 12) =      3.07678  eV     2   --> G_6   D_6      
     e( 13 - 14) =      3.07709  eV     2   --> G_7   D_7      
     e( 15 - 16) =      3.19011  eV     2   --> G_6   D_6      
     e( 17 - 18) =      4.14991  eV     2   --> G_7   D_7      
     e( 19 - 19) =      4.62899  eV     1   -->   ?
     e( 20 - 20) =      4.62914  eV     1   -->   ?

 **************************************************************************

 **************************************************************************

                    xk=(   0.00000,   0.00000,   1.29732  )

     Band symmetry, C_4v (4mm)  double point group:

     e(  1 -  2) =    -19.29280  eV     2   --> G_6   D_6      
     e(  3 -  4) =     -7.35541  eV     2   --> G_6   D_6      
     e(  5 -  6) =     -7.34972  eV     2   --> G_7   D_7      
     e(  7 -  8) =      1.94487  eV     2   --> G_6   D_6      
     e(  9 - 10) =      3.50868  eV     2   --> G_7   D_7      
     e( 11 - 12) =      3.55553  eV     2   --> G_6   D_6      
     e( 13 - 14) =      3.55584  eV     2   --> G_7   D_7      
     e( 15 - 16) =      3.64191  eV     2   --> G_6   D_6      
     e( 17 - 18) =      4.63088  eV     2   --> G_7   D_7      
     e( 19 - 19) =      5.10767  eV     1   -->   ?
     e( 20 - 20) =      5.10786  eV     1   -->   ?

 **************************************************************************

 **************************************************************************

                    xk=(   0.00000,   0.00000,   1.42705  )

     Band symmetry, C_4v (4mm)  double point group:

     e(  1 -  2) =    -19.01537  eV     2   --> G_6   D_6      
     e(  3 -  4) =     -6.86043  eV     2   --> G_6   D_6      
     e(  5 -  6) =     -6.85467  eV     2   --> G_7   D_7      
     e(  7 -  8) =      2.45322  eV     2   --> G_6   D_6      
     e(  9 - 10) =      4.04029  eV     2   --> G_7   D_7      
     e( 11 - 12) =      4.08454  eV     2   --> G_6   D_6      
     e( 13 - 14) =      4.08485  eV     2   --> G_7   D_7      
     e( 15 - 16) =      4.13728  eV     2   --> G_6   D_6      
     e( 17 - 18) =      5.16248  eV     2   --> G_7   D_7      
     e( 19 - 19) =      5.63668  eV     1   -->   ?
     e( 20 - 20) =      5.63680  eV     1   -->   ?

 **************************************************************************

 **************************************************************************

                    xk=(   0.00000,   0.00000,   1.55678  )

     Band symmetry, C_4v (4mm)  double point group:

     e(  1 -  2) =    -18.71712  eV     2   --> G_6   D_6      
     e(  3 -  4) =     -6.32019  eV     2   --> G_6   D_6      
     e(  5 -  6) =     -6.31436  eV     2   --> G_7   D_7      
     e(  7 -  8) =      3.00534  eV     2   --> G_6   D_6      
     e(  9 - 10) =      4.62253  eV     2   --> G_7   D_7      
     e( 11 - 12) =      4.66374  eV     2   --> G_6   D_6      
     e( 13 - 14) =      4.66407  eV     2   --> G_7   D_7      
     e( 15 - 16) =      4.67390  eV     2   --> G_6   D_6      
     e( 17 - 18) =      5.74470  eV     2   --> G_7   D_7      
     e( 19 - 19) =      6.21594  eV     1   -->   ?
     e( 20 - 20) =      6.21613  eV     1   -->   ?

 **************************************************************************

 **************************************************************************

                    xk=(   0.00000,   0.00000,   1.68652  )

     Band symmetry, C_4v (4mm)  double point group:

     e(  1 -  2) =    -18.39984  eV     2   --> G_6   D_6      
     e(  3 -  4) =     -5.73544  eV     2   --> G_6   D_6      
     e(  5 -  6) =     -5.72953  eV     2   --> G_7   D_7      
     e(  7 -  8) =      3.59798  eV     2   --> G_6   D_6      
     e(  9 - 10) =      5.24813  eV     2   --> G_6   D_6      
     e( 11 - 12) =      5.25540  eV     2   --> G_7   D_7      
     e( 13 - 14) =      5.29309  eV     2   --> G_6   D_6      
     e( 15 - 16) =      5.29341  eV     2   --> G_7   D_7      
     e( 17 - 18) =      6.37756  eV     2   --> G_7   D_7      
     e( 19 - 20) =      6.84520  eV     2   -->   ?

 **************************************************************************

 **************************************************************************

                    xk=(   0.00000,   0.00000,   1.81625  )

     Band symmetry, C_4v (4mm)  double point group:

     e(  1 -  2) =    -18.06547  eV     2   --> G_6   D_6      
     e(  3 -  4) =     -5.10701  eV     2   --> G_6   D_6      
     e(  5 -  6) =     -5.10100  eV     2   --> G_7   D_7      
     e(  7 -  8) =      4.22532  eV     2   --> G_6   D_6      
     e(  9 - 10) =      5.85443  eV     2   --> G_6   D_6      
     e( 11 - 12) =      5.93889  eV     2   --> G_7   D_7      
     e( 13 - 14) =      5.97246  eV     2   --> G_6   D_6      
     e( 15 - 16) =      5.97280  eV     2   --> G_7   D_7      
     e( 17 - 18) =      7.06104  eV     2   --> G_7   D_7      
     e( 19 - 19) =      7.52470  eV     1   -->   ?
     e( 20 - 20) =      7.52483  eV     1   -->   ?

 **************************************************************************

 **************************************************************************

                    xk=(   0.00000,   0.00000,   1.94598  )

     Band symmetry, C_4v (4mm)  double point group:

     e(  1 -  2) =    -17.71629  eV     2   --> G_6   D_6      
     e(  3 -  4) =     -4.43597  eV     2   --> G_6   D_6      
     e(  5 -  6) =     -4.42985  eV     2   --> G_7   D_7      
     e(  7 -  8) =      4.87620  eV     2   --> G_6   D_6      
     e(  9 - 10) =      6.48434  eV     2   --> G_6   D_6      
     e( 11 - 12) =      6.67302  eV     2   --> G_7   D_7      
     e( 13 - 14) =      6.70175  eV     2   --> G_6   D_6      
     e( 15 - 16) =      6.70209  eV     2   --> G_7   D_7      
     e( 17 - 18) =      7.79515  eV     2   --> G_7   D_7      
     e( 19 - 19) =      8.25396  eV     1   -->   ?
     e( 20 - 20) =      8.25411  eV     1   -->   ?

 **************************************************************************

 **************************************************************************

                    xk=(   0.00000,   0.00000,   2.07571  )

     Band symmetry, C_4v (4mm)  double point group:

     e(  1 -  2) =    -17.35488  eV     2   --> G_6   D_6      
     e(  3 -  4) =     -3.72370  eV     2   --> G_6   D_6      
     e(  5 -  6) =     -3.71746  eV     2   --> G_7   D_7      
     e(  7 -  8) =      5.52773  eV     2   --> G_6   D_6      
     e(  9 - 10) =      7.12660  eV     2   --> G_6   D_6      
     e( 11 - 12) =      7.45777  eV     2   --> G_7   D_7      
     e( 13 - 14) =      7.48079  eV     2   --> G_6   D_6      
     e( 15 - 16) =      7.48114  eV     2   --> G_7   D_7      
     e( 17 - 18) =      8.57989  eV     2   --> G_7   D_7      
     e( 19 - 20) =      8.95956  eV     2   --> G_6   D_6      

 **************************************************************************

 **************************************************************************

                    xk=(   0.00000,   0.00000,   2.20544  )

     Band symmetry, C_4v (4mm)  double point group:

     e(  1 -  2) =    -16.98416  eV     2   --> G_6   D_6      
     e(  3 -  4) =     -2.97189  eV     2   --> G_6   D_6      
     e(  5 -  6) =     -2.96551  eV     2   --> G_7   D_7      
     e(  7 -  8) =      6.13162  eV     2   --> G_6   D_6      
     e(  9 - 10) =      7.77338  eV     2   --> G_6   D_6      
     e( 11 - 12) =      8.29316  eV     2   --> G_7   D_7      
     e( 13 - 14) =      8.30934  eV     2   --> G_6   D_6      
     e( 15 - 16) =      8.30970  eV     2   --> G_7   D_7      
     e( 17 - 18) =      9.41525  eV     2   --> G_7   D_7      
     e( 19 - 20) =      9.63894  eV     2   --> G_6   D_6      

 **************************************************************************

 **************************************************************************

                    xk=(   0.00000,   0.00000,   2.33518  )

     Band symmetry, C_4v (4mm)  double point group:

     e(  1 -  2) =    -16.60744  eV     2   --> G_6   D_6      
     e(  3 -  4) =     -2.18268  eV     2   --> G_6   D_6      
     e(  5 -  6) =     -2.17613  eV     2   --> G_7   D_7      
     e(  7 -  8) =      6.59814  eV     2   --> G_6   D_6      
     e(  9 - 10) =      8.44032  eV     2   --> G_6   D_6      
     e( 11 - 12) =      9.17917  eV     2   --> G_7   D_7      
     e( 13 - 14) =      9.18709  eV     2   --> G_6   D_6      
     e( 15 - 16) =      9.18746  eV     2   --> G_7   D_7      
     e( 17 - 18) =     10.30124  eV     2   --> G_7   D_7      
     e( 19 - 20) =     10.33928  eV     2   --> G_6   D_6      

 **************************************************************************

 **************************************************************************

                    xk=(   0.00000,   0.00000,   2.46491  )

     Band symmetry, C_4v (4mm)  double point group:

     e(  1 -  2) =    -16.22854  eV     2   --> G_6   D_6      
     e(  3 -  4) =     -1.35897  eV     2   --> G_6   D_6      
     e(  5 -  6) =     -1.35223  eV     2   --> G_7   D_7      
     e(  7 -  8) =      6.82489  eV     2   --> G_6   D_6      
     e(  9 - 10) =      9.17538  eV     2   --> G_6   D_6      
     e( 11 - 12) =     10.11355  eV     2   --> G_6   D_6      
     e( 13 - 14) =     10.11394  eV     2   --> G_7   D_7      
     e( 15 - 16) =     10.11581  eV     2   --> G_7   D_7      
     e( 17 - 18) =     11.08565  eV     2   --> G_6   D_6      
     e( 19 - 20) =     11.23785  eV     2   --> G_7   D_7      

 **************************************************************************

 **************************************************************************

                    xk=(   0.00000,   0.00000,   2.59464  )

     Band symmetry, C_4v (4mm)  double point group:

     e(  1 -  2) =    -15.85173  eV     2   --> G_6   D_6      
     e(  3 -  4) =     -0.50449  eV     2   --> G_6   D_6      
     e(  5 -  6) =     -0.49753  eV     2   --> G_7   D_7      
     e(  7 -  8) =      6.78963  eV     2   --> G_6   D_6      
     e(  9 - 10) =     10.01197  eV     2   --> G_6   D_6      
     e( 11 - 12) =     11.08799  eV     2   --> G_6   D_6      
     e( 13 - 14) =     11.08840  eV     2   --> G_7   D_7      
     e( 15 - 16) =     11.10308  eV     2   --> G_7   D_7      
     e( 17 - 18) =     11.90575  eV     2   --> G_6   D_6      
     e( 19 - 20) =     12.22509  eV     2   --> G_7   D_7      

 **************************************************************************

 **************************************************************************

                    xk=(   0.00000,   0.00000,   2.72437  )

     Band symmetry, C_4v (4mm)  double point group:

     e(  1 -  2) =    -15.48184  eV     2   --> G_6   D_6      
     e(  3 -  4) =      0.37579  eV     2   --> G_6   D_6      
     e(  5 -  6) =      0.38301  eV     2   --> G_7   D_7      
     e(  7 -  8) =      6.56013  eV     2   --> G_6   D_6      
     e(  9 - 10) =     10.94462  eV     2   --> G_6   D_6      
     e( 11 - 12) =     12.10923  eV     2   --> G_6   D_6      
     e( 13 - 14) =     12.10967  eV     2   --> G_7   D_7      
     e( 15 - 16) =     12.14098  eV     2   --> G_7   D_7      
     e( 17 - 18) =     12.80860  eV     2   --> G_6   D_6      
     e( 19 - 20) =     13.26295  eV     2   --> G_7   D_7      

 **************************************************************************

 **************************************************************************

                    xk=(   0.00000,   0.00000,   2.85410  )

     Band symmetry, C_4v (4mm)  double point group:

     e(  1 -  2) =    -15.12429  eV     2   --> G_6   D_6      
     e(  3 -  4) =      1.27498  eV     2   --> G_6   D_6      
     e(  5 -  6) =      1.28250  eV     2   --> G_7   D_7      
     e(  7 -  8) =      6.21990  eV     2   --> G_6   D_6      
     e(  9 - 10) =     11.95676  eV     2   --> G_6   D_6      
     e( 11 - 12) =     13.17520  eV     2   --> G_6   D_6      
     e( 13 - 14) =     13.17568  eV     2   --> G_7   D_7      
     e( 15 - 16) =     13.22951  eV     2   --> G_7   D_7      
     e( 17 - 18) =     13.78881  eV     2   --> G_6   D_6      
     e( 19 - 20) =     14.35144  eV     2   --> G_7   D_7      

 **************************************************************************

 **************************************************************************

                    xk=(   0.00000,   0.00000,   2.98384  )

     Band symmetry, C_4v (4mm)  double point group:

     e(  1 -  2) =    -14.78504  eV     2   --> G_6   D_6      
     e(  3 -  4) =      2.18362  eV     2   --> G_6   D_6      
     e(  5 -  6) =      2.19149  eV     2   --> G_7   D_7      
     e(  7 -  8) =      5.83173  eV     2   --> G_6   D_6      
     e(  9 - 10) =     13.03609  eV     2   --> G_6   D_6      
     e( 11 - 12) =     14.28197  eV     2   --> G_6   D_6      
     e( 13 - 14) =     14.28252  eV     2   --> G_7   D_7      
     e( 15 - 16) =     14.36866  eV     2   --> G_7   D_7      
     e( 17 - 18) =     14.83779  eV     2   --> G_6   D_6      
     e( 19 - 20) =     15.49054  eV     2   --> G_7   D_7      

 **************************************************************************

 **************************************************************************

                    xk=(   0.00000,   0.00000,   3.11357  )

     Band symmetry, C_4v (4mm)  double point group:

     e(  1 -  2) =    -14.47060  eV     2   --> G_6   D_6      
     e(  3 -  4) =      3.08827  eV     2   --> G_6   D_6      
     e(  5 -  6) =      3.09655  eV     2   --> G_7   D_7      
     e(  7 -  8) =      5.43762  eV     2   --> G_6   D_6      
     e(  9 - 10) =     14.17499  eV     2   --> G_6   D_6      
     e( 11 - 12) =     15.42108  eV     2   --> G_6   D_6      
     e( 13 - 14) =     15.42172  eV     2   --> G_7   D_7      
     e( 15 - 16) =     15.55844  eV     2   --> G_7   D_7      
     e( 17 - 18) =     15.94827  eV     2   --> G_6   D_6      
     e( 19 - 20) =     16.68026  eV     2   --> G_7   D_7      

 **************************************************************************

 **************************************************************************

                    xk=(   0.00000,   0.00000,   3.24330  )

     Band symmetry, C_4v (4mm)  double point group:

     e(  1 -  2) =    -14.18788  eV     2   --> G_6   D_6      
     e(  3 -  4) =      3.96967  eV     2   --> G_6   D_6      
     e(  5 -  6) =      3.97844  eV     2   --> G_7   D_7      
     e(  7 -  8) =      5.06612  eV     2   --> G_6   D_6      
     e(  9 - 10) =     15.36851  eV     2   --> G_6   D_6      
     e( 11 - 12) =     16.57077  eV     2   --> G_6   D_6      
     e( 13 - 14) =     16.57157  eV     2   --> G_7   D_7      
     e( 15 - 16) =     16.79885  eV     2   --> G_7   D_7      
     e( 17 - 18) =     17.11454  eV     2   --> G_6   D_6      
     e( 19 - 20) =     17.92059  eV     2   --> G_7   D_7      

 **************************************************************************

 **************************************************************************

                    xk=(   0.00000,   0.00000,   3.37303  )

     Band symmetry, C_4v (4mm)  double point group:

     e(  1 -  2) =    -13.94388  eV     2   --> G_6   D_6      
     e(  3 -  4) =      4.73746  eV     2   --> G_6   D_6      
     e(  5 -  6) =      4.80039  eV     2   --> G_6   D_6      
     e(  7 -  8) =      4.80959  eV     2   --> G_7   D_7      
     e(  9 - 10) =     16.61278  eV     2   --> G_6   D_6      
     e( 11 - 12) =     17.66101  eV     2   --> G_6   D_6      
     e( 13 - 14) =     17.66211  eV     2   --> G_7   D_7      
     e( 15 - 16) =     18.08987  eV     2   --> G_7   D_7      
     e( 17 - 18) =     18.33146  eV     2   --> G_6   D_6      
     e( 19 - 20) =     19.21153  eV     2   --> G_7   D_7      

 **************************************************************************

 **************************************************************************

                    xk=(   0.00000,   0.00000,   3.50276  )

     Band symmetry, C_4v (4mm)  double point group:

     e(  1 -  2) =    -13.74543  eV     2   --> G_6   D_6      
     e(  3 -  4) =      4.46693  eV     2   --> G_6   D_6      
     e(  5 -  6) =      5.54109  eV     2   --> G_6   D_6      
     e(  7 -  8) =      5.55099  eV     2   --> G_7   D_7      
     e(  9 - 10) =     17.90348  eV     2   --> G_6   D_6      
     e( 11 - 12) =     18.44720  eV     2   --> G_6   D_6      
     e( 13 - 14) =     18.44862  eV     2   --> G_7   D_7      
     e( 15 - 16) =     19.43152  eV     2   --> G_7   D_7      
     e( 17 - 18) =     19.59247  eV     2   --> G_6   D_6      
     e( 19 - 19) =     20.20135  eV     1   -->   ?
     e( 20 - 20) =     20.20156  eV     1   -->   ?

 **************************************************************************

 **************************************************************************

                    xk=(   0.00000,   0.00000,   3.63250  )

     Band symmetry, C_4v (4mm)  double point group:

     e(  1 -  2) =    -13.59861  eV     2   --> G_6   D_6      
     e(  3 -  4) =      4.26569  eV     2   --> G_6   D_6      
     e(  5 -  6) =      6.14003  eV     2   --> G_6   D_6      
     e(  7 -  8) =      6.15052  eV     2   --> G_7   D_7      
     e(  9 - 10) =     18.61369  eV     2   --> G_6   D_6      
     e( 11 - 12) =     18.61465  eV     2   --> G_7   D_7      
     e( 13 - 14) =     19.23280  eV     2   --> G_6   D_6      
     e( 15 - 16) =     20.82379  eV     2   --> G_7   D_7      
     e( 17 - 18) =     20.88313  eV     2   --> G_6   D_6      
     e( 19 - 20) =     21.23748  eV     2   -->   ?

 **************************************************************************

 **************************************************************************

                    xk=(   0.00000,   0.00000,   3.76223  )

     Band symmetry, C_4v (4mm)  double point group:

     e(  1 -  2) =    -13.50839  eV     2   --> G_6   D_6      
     e(  3 -  4) =      4.14175  eV     2   --> G_6   D_6      
     e(  5 -  6) =      6.53616  eV     2   --> G_6   D_6      
     e(  7 -  8) =      6.54709  eV     2   --> G_7   D_7      
     e(  9 - 10) =     18.47148  eV     2   --> G_6   D_6      
     e( 11 - 12) =     18.47174  eV     2   --> G_7   D_7      
     e( 13 - 14) =     20.57427  eV     2   --> G_6   D_6      
     e( 15 - 16) =     22.13109  eV     2   --> G_6   D_6      
     e( 17 - 18) =     22.26665  eV     2   --> G_7   D_7      
     e( 19 - 20) =     22.48455  eV     2   -->   ?

 **************************************************************************

 **************************************************************************

                    xk=(   0.00000,   0.00000,   3.89196  )

     double point group D_4h(4/mmm)
     there are 14 classes and  4 irreducible representations
     the character table:

       E     -E    2C4   -2C4   C2    2C2' 2C2'' i     -i    2S4   -2S4   s_h 
                               -C2   -2C2' -2C2'                         -s_h 
G_6+   2.00 -2.00  1.41 -1.41  0.00  0.00  0.00  2.00 -2.00  1.41 -1.41  0.00
G_7+   2.00 -2.00 -1.41  1.41  0.00  0.00  0.00  2.00 -2.00 -1.41  1.41  0.00
G_6-   2.00 -2.00  1.41 -1.41  0.00  0.00  0.00 -2.00  2.00 -1.41  1.41  0.00
G_7-   2.00 -2.00 -1.41  1.41  0.00  0.00  0.00 -2.00  2.00  1.41 -1.41  0.00

        2s_v  2s_d
       -2s_v -2s_d
G_6+   0.00  0.00
G_7+   0.00  0.00
G_6-   0.00  0.00
G_7-   0.00  0.00

     the symmetry operations in each class and the name of the first element:

     E             1
                                                                 
     -E           -1
                                                                 
     2C4           7    8
                                                                 
     -2C4         -7   -8
                                                                 
      C2  -C2      2   -2
                                                                 
      2C2'-2C2'    3   -3    4   -4
                                                                 
     2C2''-2C2'    5   -5   -6    6
                                                                 
     i             9
                                                                 
     -i           -9
                                                                 
     2S4          15   16
                                                                 
     -2S4        -15  -16
                                                                 
      s_h -s_h    10  -10
                                                                 
      2s_v-2s_v   11  -11   12  -12
                                                                 
      2s_d-2s_d   13  -13  -14   14
                                                                 

     Band symmetry, D_4h(4/mmm) double point group:

     e(  1 -  2) =    -13.47795  eV     2   --> G_6-  M_6-     
     e(  3 -  4) =      4.09985  eV     2   --> G_6+  M_6+     
     e(  5 -  6) =      6.67563  eV     2   --> G_6-  M_6-     
     e(  7 -  8) =      6.68673  eV     2   --> G_7-  M_7-     
     e(  9 - 12) =     18.38999  eV     4   --> G_6+  M_6+     
     e(  9 - 12) =     18.38999  eV     4   --> G_7+  M_7+     
     e( 13 - 14) =     21.57686  eV     2   --> G_6-  M_6-     
     e( 15 - 16) =     22.38732  eV     2   --> G_6+  M_6+     
     e( 17 - 18) =     23.34655  eV     2   --> G_6-  M_6-     
     e( 19 - 19) =     23.58629  eV     1   -->   ?
     e( 20 - 20) =     23.58648  eV     1   -->   ?

 **************************************************************************

     BANDS        :     46.47s CPU     52.61s WALL


   This run was terminated on:   2: 8:23   2Jun2023            

=------------------------------------------------------------------------------=
   JOB DONE.
=------------------------------------------------------------------------------=
