
     Program PWSCF v.7.2 starts on 16May2023 at  0:15:58 

     This program is part of the open-source Quantum ESPRESSO suite
     for quantum simulation of materials; please cite
         "P. Giannozzi et al., J. Phys.:Condens. Matter 21 395502 (2009);
         "P. Giannozzi et al., J. Phys.:Condens. Matter 29 465901 (2017);
         "P. Giannozzi et al., J. Chem. Phys. 152 154105 (2020);
          URL http://www.quantum-espresso.org", 
     in publications or presentations arising from this work. More details at
     http://www.quantum-espresso.org/quote

     Parallel version (MPI), running on     1 processors

     MPI processes distributed on     1 nodes
     198 MiB available memory on the printing compute node when the environment starts

     Reading input from 2_c.nscf.in

     Current dimensions of program PWSCF are:
     Max number of different atomic species (ntypx) = 10
     Max number of k-points (npk) =  40000
     Max angular momentum in pseudopotentials (lmaxx) =  4
     file C.pbe-n-kjpaw_psl.1.0.0.UPF: wavefunction(s)  2S 2P renormalized

     Atomic positions and unit cell read from directory:
     ./outdir/1c_112.save/

     Found identity + (  0.0000  0.0000  0.5000) symmetry
     This is a supercell, fractional translations are disabled

     Subspace diagonalization in iterative solution of the eigenvalue problem:
     a serial algorithm will be used


     G-vector sticks info
     --------------------
     sticks:   dense  smooth     PW     G-vecs:    dense   smooth      PW
     Sum        5129    5129   1565                70613    70613   11799

     Using Slab Decomposition



     bravais-lattice index     =            6
     lattice parameter (alat)  =      18.8973  a.u.
     unit-cell volume          =    1730.6409 (a.u.)^3
     number of atoms/cell      =            2
     number of atomic types    =            1
     number of electrons       =         8.00
     number of Kohn-Sham states=            8
     kinetic-energy cutoff     =      45.0000  Ry
     charge density cutoff     =     180.0000  Ry
     Exchange-correlation= SLA  PW   PBX  PBC
                           (   1   4   3   4   0   0   0)

     celldm(1)=  18.897261  celldm(2)=   1.000000  celldm(3)=   0.256455
     celldm(4)=   0.000000  celldm(5)=   0.000000  celldm(6)=   0.000000

     crystal axes: (cart. coord. in units of alat)
               a(1) = (   1.000000   0.000000   0.000000 )  
               a(2) = (   0.000000   1.000000   0.000000 )  
               a(3) = (   0.000000   0.000000   0.256455 )  

     reciprocal axes: (cart. coord. in units 2 pi/alat)
               b(1) = (  1.000000  0.000000  0.000000 )  
               b(2) = (  0.000000  1.000000  0.000000 )  
               b(3) = (  0.000000  0.000000  3.899327 )  


     PseudoPot. # 1 for C  read from file:
     /home/ubuntu/aws/492/C.pbe-n-kjpaw_psl.1.0.0.UPF
     MD5 check sum: 5f16ad9a65e90284d1d834d4ab3b0f7d
     Pseudo is Projector augmented-wave + core cor, Zval =  4.0
     Generated using &quot;atomic&quot; code by A. Dal Corso  v.6.3
     Shape of augmentation charge: PSQ
     Using radial grid of 1073 points,  4 beta functions with: 
                l(1) =   0
                l(2) =   0
                l(3) =   1
                l(4) =   1
     Q(r) pseudized with 0 coefficients 


     atomic species   valence    mass     pseudopotential
        C              4.00    12.01100     C ( 1.00)

     16 Sym. Ops., with inversion, found



   Cartesian axes

     site n.     atom                  positions (alat units)
         1           C   tau(   1) = (   0.0000000   0.0000000   0.0000000  )
         2           C   tau(   2) = (   0.0000000   0.0000000   0.1282273  )

     number of k points=    41 (tetrahedron method)
                       cart. coord. in units 2pi/alat
        k(    1) = (  -0.5000000  -0.5000000   0.0240699), wk =   0.0493827
        k(    2) = (  -0.5000000  -0.5000000   0.0722098), wk =   0.0493827
        k(    3) = (  -0.5000000  -0.5000000   0.1203496), wk =   0.0493827
        k(    4) = (  -0.5000000  -0.5000000   0.1684894), wk =   0.0493827
        k(    5) = (  -0.5000000  -0.5000000   0.2166293), wk =   0.0493827
        k(    6) = (  -0.5000000  -0.5000000   0.2647691), wk =   0.0493827
        k(    7) = (  -0.5000000  -0.5000000   0.3129089), wk =   0.0493827
        k(    8) = (  -0.5000000  -0.5000000   0.3610488), wk =   0.0493827
        k(    9) = (  -0.5000000  -0.5000000   0.4091886), wk =   0.0493827
        k(   10) = (  -0.5000000  -0.5000000   0.4573285), wk =   0.0493827
        k(   11) = (  -0.5000000  -0.5000000   0.5054683), wk =   0.0493827
        k(   12) = (  -0.5000000  -0.5000000   0.5536081), wk =   0.0493827
        k(   13) = (  -0.5000000  -0.5000000   0.6017480), wk =   0.0493827
        k(   14) = (  -0.5000000  -0.5000000   0.6498878), wk =   0.0493827
        k(   15) = (  -0.5000000  -0.5000000   0.6980276), wk =   0.0493827
        k(   16) = (  -0.5000000  -0.5000000   0.7461675), wk =   0.0493827
        k(   17) = (  -0.5000000  -0.5000000   0.7943073), wk =   0.0493827
        k(   18) = (  -0.5000000  -0.5000000   0.8424472), wk =   0.0493827
        k(   19) = (  -0.5000000  -0.5000000   0.8905870), wk =   0.0493827
        k(   20) = (  -0.5000000  -0.5000000   0.9387268), wk =   0.0493827
        k(   21) = (  -0.5000000  -0.5000000   0.9868667), wk =   0.0493827
        k(   22) = (  -0.5000000  -0.5000000   1.0350065), wk =   0.0493827
        k(   23) = (  -0.5000000  -0.5000000   1.0831463), wk =   0.0493827
        k(   24) = (  -0.5000000  -0.5000000   1.1312862), wk =   0.0493827
        k(   25) = (  -0.5000000  -0.5000000   1.1794260), wk =   0.0493827
        k(   26) = (  -0.5000000  -0.5000000   1.2275659), wk =   0.0493827
        k(   27) = (  -0.5000000  -0.5000000   1.2757057), wk =   0.0493827
        k(   28) = (  -0.5000000  -0.5000000   1.3238455), wk =   0.0493827
        k(   29) = (  -0.5000000  -0.5000000   1.3719854), wk =   0.0493827
        k(   30) = (  -0.5000000  -0.5000000   1.4201252), wk =   0.0493827
        k(   31) = (  -0.5000000  -0.5000000   1.4682650), wk =   0.0493827
        k(   32) = (  -0.5000000  -0.5000000   1.5164049), wk =   0.0493827
        k(   33) = (  -0.5000000  -0.5000000   1.5645447), wk =   0.0493827
        k(   34) = (  -0.5000000  -0.5000000   1.6126845), wk =   0.0493827
        k(   35) = (  -0.5000000  -0.5000000   1.6608244), wk =   0.0493827
        k(   36) = (  -0.5000000  -0.5000000   1.7089642), wk =   0.0493827
        k(   37) = (  -0.5000000  -0.5000000   1.7571041), wk =   0.0493827
        k(   38) = (  -0.5000000  -0.5000000   1.8052439), wk =   0.0493827
        k(   39) = (  -0.5000000  -0.5000000   1.8533837), wk =   0.0493827
        k(   40) = (  -0.5000000  -0.5000000   1.9015236), wk =   0.0493827
        k(   41) = (  -0.5000000  -0.5000000  -1.9496634), wk =   0.0246914

     Dense  grid:    70613 G-vectors     FFT dimensions: (  81,  81,  24)

     Estimated max dynamical RAM per process >      72.68 MB

     Check: negative core charge=   -0.000012

     The potential is recalculated from file :
     ./outdir/1c_112.save/charge-density


     negative rho (up, down):  1.535E-03 0.000E+00
     Starting wfcs are    8 randomized atomic wfcs
     Checking if some PAW data can be deallocated... 

     Band Structure Calculation
     Davidson diagonalization with overlap

     ethr =  1.25E-08,  avg # of iterations = 34.7

     total cpu time spent up to now is       40.2 secs

     End of band structure calculation

          k =-0.5000-0.5000 0.0241 (  8816 PWs)   bands (ev):

   -20.6908 -13.4922  -9.7436  -9.7436   0.1744   0.3306   0.3306   0.3939

          k =-0.5000-0.5000 0.0722 (  8788 PWs)   bands (ev):

   -20.6868 -13.5005  -9.7370  -9.7370   0.1810   0.3375   0.3375   0.4009

          k =-0.5000-0.5000 0.1203 (  8812 PWs)   bands (ev):

   -20.6789 -13.5172  -9.7238  -9.7238   0.1941   0.3514   0.3514   0.4149

          k =-0.5000-0.5000 0.1685 (  8820 PWs)   bands (ev):

   -20.6671 -13.5420  -9.7041  -9.7041   0.2138   0.3723   0.3723   0.4358

          k =-0.5000-0.5000 0.2166 (  8820 PWs)   bands (ev):

   -20.6513 -13.5750  -9.6777  -9.6777   0.2401   0.4001   0.4001   0.4637

          k =-0.5000-0.5000 0.2648 (  8800 PWs)   bands (ev):

   -20.6316 -13.6159  -9.6448  -9.6448   0.2729   0.4349   0.4349   0.4985

          k =-0.5000-0.5000 0.3129 (  8808 PWs)   bands (ev):

   -20.6081 -13.6644  -9.6053  -9.6053   0.3122   0.4766   0.4766   0.5403

          k =-0.5000-0.5000 0.3610 (  8804 PWs)   bands (ev):

   -20.5806 -13.7206  -9.5592  -9.5592   0.3581   0.5253   0.5253   0.5891

          k =-0.5000-0.5000 0.4092 (  8800 PWs)   bands (ev):

   -20.5492 -13.7839  -9.5065  -9.5065   0.4105   0.5810   0.5810   0.6449

          k =-0.5000-0.5000 0.4573 (  8816 PWs)   bands (ev):

   -20.5140 -13.8542  -9.4473  -9.4473   0.4694   0.6436   0.6436   0.7077

          k =-0.5000-0.5000 0.5055 (  8800 PWs)   bands (ev):

   -20.4749 -13.9312  -9.3815  -9.3815   0.5349   0.7131   0.7131   0.7774

          k =-0.5000-0.5000 0.5536 (  8812 PWs)   bands (ev):

   -20.4320 -14.0146  -9.3092  -9.3092   0.6068   0.7896   0.7896   0.8541

          k =-0.5000-0.5000 0.6017 (  8808 PWs)   bands (ev):

   -20.3852 -14.1039  -9.2303  -9.2303   0.6852   0.8731   0.8731   0.9377

          k =-0.5000-0.5000 0.6499 (  8812 PWs)   bands (ev):

   -20.3348 -14.1989  -9.1449  -9.1449   0.7701   0.9635   0.9635   1.0283

          k =-0.5000-0.5000 0.6980 (  8824 PWs)   bands (ev):

   -20.2806 -14.2992  -9.0529  -9.0529   0.8614   1.0609   1.0609   1.1259

          k =-0.5000-0.5000 0.7462 (  8808 PWs)   bands (ev):

   -20.2226 -14.4045  -8.9544  -8.9544   0.9591   1.1652   1.1652   1.2305

          k =-0.5000-0.5000 0.7943 (  8816 PWs)   bands (ev):

   -20.1610 -14.5144  -8.8494  -8.8494   1.0632   1.2765   1.2765   1.3421

          k =-0.5000-0.5000 0.8424 (  8848 PWs)   bands (ev):

   -20.0958 -14.6285  -8.7379  -8.7379   1.1737   1.3947   1.3947   1.4606

          k =-0.5000-0.5000 0.8906 (  8844 PWs)   bands (ev):

   -20.0270 -14.7466  -8.6200  -8.6200   1.2905   1.5199   1.5199   1.5861

          k =-0.5000-0.5000 0.9387 (  8852 PWs)   bands (ev):

   -19.9546 -14.8681  -8.4955  -8.4955   1.4136   1.6520   1.6520   1.7185

          k =-0.5000-0.5000 0.9869 (  8820 PWs)   bands (ev):

   -19.8787 -14.9929  -8.3646  -8.3646   1.5429   1.6862   1.6862   1.7910

          k =-0.5000-0.5000 1.0350 (  8836 PWs)   bands (ev):

   -19.7994 -15.1206  -8.2272  -8.2272   1.3482   1.3482   1.6784   1.9371

          k =-0.5000-0.5000 1.0831 (  8812 PWs)   bands (ev):

   -19.7166 -15.2508  -8.0834  -8.0834   1.0115   1.0115   1.8200   2.0900

          k =-0.5000-0.5000 1.1313 (  8820 PWs)   bands (ev):

   -19.6306 -15.3833  -7.9332  -7.9332   0.6767   0.6767   1.9678   2.2500

          k =-0.5000-0.5000 1.1794 (  8820 PWs)   bands (ev):

   -19.5412 -15.5177  -7.7766  -7.7766   0.3442   0.3442   2.1215   2.4168

          k =-0.5000-0.5000 1.2276 (  8836 PWs)   bands (ev):

   -19.4486 -15.6537  -7.6136  -7.6136   0.0144   0.0144   2.2811   2.5906

          k =-0.5000-0.5000 1.2757 (  8832 PWs)   bands (ev):

   -19.3528 -15.7911  -7.4443  -7.4443  -0.3122  -0.3122   2.4466   2.7714

          k =-0.5000-0.5000 1.3238 (  8840 PWs)   bands (ev):

   -19.2539 -15.9296  -7.2686  -7.2686  -0.6354  -0.6354   2.6178   2.9591

          k =-0.5000-0.5000 1.3720 (  8856 PWs)   bands (ev):

   -19.1520 -16.0690  -7.0867  -7.0867  -0.9549  -0.9549   2.7945   3.1537

          k =-0.5000-0.5000 1.4201 (  8864 PWs)   bands (ev):

   -19.0471 -16.2089  -6.8984  -6.8984  -1.2704  -1.2704   2.9767   3.3553

          k =-0.5000-0.5000 1.4683 (  8856 PWs)   bands (ev):

   -18.9394 -16.3491  -6.7040  -6.7040  -1.5817  -1.5817   3.1641   3.5638

          k =-0.5000-0.5000 1.5164 (  8848 PWs)   bands (ev):

   -18.8289 -16.4895  -6.5033  -6.5033  -1.8885  -1.8885   3.3566   3.7792

          k =-0.5000-0.5000 1.5645 (  8860 PWs)   bands (ev):

   -18.7157 -16.6298  -6.2964  -6.2964  -2.1907  -2.1907   3.5539   4.0016

          k =-0.5000-0.5000 1.6127 (  8840 PWs)   bands (ev):

   -18.5999 -16.7698  -6.0834  -6.0834  -2.4881  -2.4881   3.7556   4.2309

          k =-0.5000-0.5000 1.6608 (  8848 PWs)   bands (ev):

   -18.4816 -16.9092  -5.8643  -5.8643  -2.7806  -2.7806   3.9615   4.4671

          k =-0.5000-0.5000 1.7090 (  8856 PWs)   bands (ev):

   -18.3609 -17.0480  -5.6392  -5.6392  -3.0680  -3.0680   4.1712   4.7103

          k =-0.5000-0.5000 1.7571 (  8856 PWs)   bands (ev):

   -18.2378 -17.1858  -5.4081  -5.4081  -3.3502  -3.3502   4.3840   4.9604

          k =-0.5000-0.5000 1.8052 (  8888 PWs)   bands (ev):

   -18.1127 -17.3227  -5.1710  -5.1710  -3.6270  -3.6270   4.5993   5.2174

          k =-0.5000-0.5000 1.8534 (  8864 PWs)   bands (ev):

   -17.9854 -17.4583  -4.9280  -4.9280  -3.8984  -3.8984   4.8165   5.4813

          k =-0.5000-0.5000 1.9015 (  8840 PWs)   bands (ev):

   -17.8562 -17.5925  -4.6792  -4.6792  -4.1643  -4.1643   5.0344   5.4677

          k =-0.5000-0.5000-1.9497 (  8848 PWs)   bands (ev):

   -17.7256 -17.7247  -4.4257  -4.4257  -4.4234  -4.4234   5.2519   5.2521

     the Fermi energy is    -4.4243 ev
     (compare with:    -4.4244 eV, computed in scf)

     Writing all to output data dir ./outdir/1c_112.save/

     init_run     :      0.64s CPU      0.71s WALL (       1 calls)
     electrons    :     39.21s CPU     39.38s WALL (       1 calls)

     Called by init_run:
     wfcinit      :      0.00s CPU      0.00s WALL (       1 calls)
     potinit      :      0.14s CPU      0.16s WALL (       1 calls)
     hinit0       :      0.38s CPU      0.39s WALL (       1 calls)

     Called by electrons:
     c_bands      :     39.21s CPU     39.38s WALL (       1 calls)
     v_of_rho     :      0.07s CPU      0.09s WALL (       1 calls)
     newd         :      0.04s CPU      0.07s WALL (       1 calls)
     PAW_pot      :      0.06s CPU      0.06s WALL (       1 calls)

     Called by c_bands:
     init_us_2    :      0.04s CPU      0.05s WALL (      41 calls)
     init_us_2:cp :      0.04s CPU      0.05s WALL (      41 calls)
     cegterg      :     37.20s CPU     37.31s WALL (      99 calls)

     Called by *egterg:
     cdiaghg      :      0.16s CPU      0.16s WALL (    1465 calls)
     h_psi        :     25.99s CPU     26.08s WALL (    1564 calls)
     s_psi        :      1.86s CPU      1.87s WALL (    1564 calls)
     g_psi        :      0.20s CPU      0.20s WALL (    1424 calls)

     Called by h_psi:
     h_psi:calbec :      1.89s CPU      1.89s WALL (    1564 calls)
     vloc_psi     :     22.11s CPU     22.19s WALL (    1564 calls)
     add_vuspsi   :      1.86s CPU      1.87s WALL (    1564 calls)

     General routines
     calbec       :      1.88s CPU      1.89s WALL (    1564 calls)
     fft          :      0.22s CPU      0.22s WALL (      12 calls)
     fftw         :     18.95s CPU     19.02s WALL (   12748 calls)
     davcio       :      0.03s CPU      0.04s WALL (      82 calls)

     Parallel routines

     PWSCF        :     39.96s CPU     40.25s WALL


   This run was terminated on:   0:16:38  16May2023            

=------------------------------------------------------------------------------=
   JOB DONE.
=------------------------------------------------------------------------------=
