
     Program PROJWFC v.7.2 starts on 16May2023 at  0:35: 4 

     This program is part of the open-source Quantum ESPRESSO suite
     for quantum simulation of materials; please cite
         "P. Giannozzi et al., J. Phys.:Condens. Matter 21 395502 (2009);
         "P. Giannozzi et al., J. Phys.:Condens. Matter 29 465901 (2017);
         "P. Giannozzi et al., J. Chem. Phys. 152 154105 (2020);
          URL http://www.quantum-espresso.org", 
     in publications or presentations arising from this work. More details at
     http://www.quantum-espresso.org/quote

     Parallel version (MPI), running on     1 processors

     MPI processes distributed on     1 nodes
     157 MiB available memory on the printing compute node when the environment starts


     Reading xml data from directory:

     ./outdir/1c_112.save/
     file C.pbe-n-kjpaw_psl.1.0.0.UPF: wavefunction(s)  2S 2P renormalized

     IMPORTANT: XC functional enforced from input :
     Exchange-correlation= PBE
                           (   1   4   3   4   0   0   0)
     Any further DFT definition will be discarded
     Please, verify this is what you really want


     G-vector sticks info
     --------------------
     sticks:   dense  smooth     PW     G-vecs:    dense   smooth      PW
     Sum        5129    5129   1565                70613    70613   11799

     Using Slab Decomposition


     Check: negative core charge=   -0.000012

     negative rho (up, down):  1.535E-03 0.000E+00

     Linear tetrahedron method (read from file) 
     [opt_tetra]  Linear tetrahedron method is used.

     Calling projwave .... 
     Subspace diagonalization in iterative solution of the eigenvalue problem:
     a serial algorithm will be used


  Problem Sizes 
  natomwfc =            8
  nbnd     =            8
  nkstot   =           41
  npwx     =         8888
  nkb      =           16


     Atomic states used for projection
     (read from pseudopotential files):

     state #   1: atom   1 (C  ), wfc  1 (l=0 m= 1)
     state #   2: atom   1 (C  ), wfc  2 (l=1 m= 1)
     state #   3: atom   1 (C  ), wfc  2 (l=1 m= 2)
     state #   4: atom   1 (C  ), wfc  2 (l=1 m= 3)
     state #   5: atom   2 (C  ), wfc  1 (l=0 m= 1)
     state #   6: atom   2 (C  ), wfc  2 (l=1 m= 1)
     state #   7: atom   2 (C  ), wfc  2 (l=1 m= 2)
     state #   8: atom   2 (C  ), wfc  2 (l=1 m= 3)

 k =  -0.5000000000 -0.5000000000  0.0240699187
==== e(   1) =   -20.69077 eV ==== 
     psi = 0.491*[#   5]+0.491*[#   1]
    |psi|^2 = 0.982
==== e(   2) =   -13.49221 eV ==== 
     psi = 0.494*[#   2]+0.494*[#   6]
    |psi|^2 = 0.989
==== e(   3) =    -9.74360 eV ==== 
     psi = 0.240*[#   3]+0.240*[#   4]+0.240*[#   7]+0.240*[#   8]
    |psi|^2 = 0.960
==== e(   4) =    -9.74360 eV ==== 
     psi = 0.240*[#   3]+0.240*[#   4]+0.240*[#   7]+0.240*[#   8]
    |psi|^2 = 0.960
==== e(   5) =     0.17443 eV ==== 
     psi = 0.004*[#   1]+0.004*[#   5]
    |psi|^2 = 0.008
==== e(   6) =     0.33058 eV ==== 
     psi = 0.003*[#   3]+0.003*[#   4]+0.003*[#   7]+0.003*[#   8]
    |psi|^2 = 0.012
==== e(   7) =     0.33058 eV ==== 
     psi = 0.003*[#   3]+0.003*[#   4]+0.003*[#   7]+0.003*[#   8]
    |psi|^2 = 0.012
==== e(   8) =     0.39395 eV ==== 

    |psi|^2 = 0.000

 k =  -0.5000000000 -0.5000000000  0.0722097560
==== e(   1) =   -20.68682 eV ==== 
     psi = 0.490*[#   5]+0.490*[#   1]+0.001*[#   2]+0.001*[#   6]
    |psi|^2 = 0.982
==== e(   2) =   -13.50054 eV ==== 
     psi = 0.494*[#   2]+0.494*[#   6]
    |psi|^2 = 0.989
==== e(   3) =    -9.73702 eV ==== 
     psi = 0.240*[#   3]+0.240*[#   4]+0.240*[#   7]+0.240*[#   8]
    |psi|^2 = 0.960
==== e(   4) =    -9.73702 eV ==== 
     psi = 0.240*[#   3]+0.240*[#   4]+0.240*[#   7]+0.240*[#   8]
    |psi|^2 = 0.960
==== e(   5) =     0.18099 eV ==== 
     psi = 0.004*[#   1]+0.004*[#   5]
    |psi|^2 = 0.009
==== e(   6) =     0.33753 eV ==== 
     psi = 0.003*[#   3]+0.003*[#   4]+0.003*[#   7]+0.003*[#   8]
    |psi|^2 = 0.012
==== e(   7) =     0.33753 eV ==== 
     psi = 0.003*[#   3]+0.003*[#   4]+0.003*[#   7]+0.003*[#   8]
    |psi|^2 = 0.012
==== e(   8) =     0.40092 eV ==== 

    |psi|^2 = 0.000

 k =  -0.5000000000 -0.5000000000  0.1203495933
==== e(   1) =   -20.67891 eV ==== 
     psi = 0.488*[#   5]+0.488*[#   1]+0.003*[#   2]+0.003*[#   6]
    |psi|^2 = 0.982
==== e(   2) =   -13.51720 eV ==== 
     psi = 0.493*[#   2]+0.493*[#   6]+0.001*[#   1]+0.001*[#   5]
    |psi|^2 = 0.989
==== e(   3) =    -9.72384 eV ==== 
     psi = 0.240*[#   3]+0.240*[#   4]+0.240*[#   7]+0.240*[#   8]
    |psi|^2 = 0.960
==== e(   4) =    -9.72384 eV ==== 
     psi = 0.240*[#   3]+0.240*[#   4]+0.240*[#   7]+0.240*[#   8]
    |psi|^2 = 0.960
==== e(   5) =     0.19412 eV ==== 
     psi = 0.003*[#   1]+0.003*[#   5]+0.002*[#   2]+0.002*[#   6]
    |psi|^2 = 0.011
==== e(   6) =     0.35144 eV ==== 
     psi = 0.003*[#   3]+0.003*[#   4]+0.003*[#   7]+0.003*[#   8]
    |psi|^2 = 0.012
==== e(   7) =     0.35144 eV ==== 
     psi = 0.003*[#   3]+0.003*[#   4]+0.003*[#   7]+0.003*[#   8]
    |psi|^2 = 0.012
==== e(   8) =     0.41486 eV ==== 

    |psi|^2 = 0.000

 k =  -0.5000000000 -0.5000000000  0.1684894306
==== e(   1) =   -20.66710 eV ==== 
     psi = 0.485*[#   5]+0.485*[#   1]+0.006*[#   2]+0.006*[#   6]
    |psi|^2 = 0.982
==== e(   2) =   -13.54204 eV ==== 
     psi = 0.492*[#   2]+0.492*[#   6]+0.003*[#   1]+0.003*[#   5]
    |psi|^2 = 0.989
==== e(   3) =    -9.70408 eV ==== 
     psi = 0.240*[#   3]+0.240*[#   4]+0.240*[#   7]+0.240*[#   8]
    |psi|^2 = 0.960
==== e(   4) =    -9.70408 eV ==== 
     psi = 0.240*[#   3]+0.240*[#   4]+0.240*[#   7]+0.240*[#   8]
    |psi|^2 = 0.960
==== e(   5) =     0.21381 eV ==== 
     psi = 0.004*[#   2]+0.004*[#   6]+0.003*[#   1]+0.003*[#   5]
    |psi|^2 = 0.015
==== e(   6) =     0.37231 eV ==== 
     psi = 0.003*[#   3]+0.003*[#   4]+0.003*[#   7]+0.003*[#   8]
    |psi|^2 = 0.012
==== e(   7) =     0.37231 eV ==== 
     psi = 0.003*[#   3]+0.003*[#   4]+0.003*[#   7]+0.003*[#   8]
    |psi|^2 = 0.012
==== e(   8) =     0.43577 eV ==== 

    |psi|^2 = 0.000

 k =  -0.5000000000 -0.5000000000  0.2166292679
==== e(   1) =   -20.65135 eV ==== 
     psi = 0.482*[#   5]+0.482*[#   1]+0.009*[#   2]+0.009*[#   6]
    |psi|^2 = 0.982
==== e(   2) =   -13.57498 eV ==== 
     psi = 0.490*[#   2]+0.490*[#   6]+0.004*[#   1]+0.004*[#   5]
    |psi|^2 = 0.989
==== e(   3) =    -9.67773 eV ==== 
     psi = 0.240*[#   3]+0.240*[#   4]+0.240*[#   7]+0.240*[#   8]
    |psi|^2 = 0.961
==== e(   4) =    -9.67773 eV ==== 
     psi = 0.240*[#   3]+0.240*[#   4]+0.240*[#   7]+0.240*[#   8]
    |psi|^2 = 0.961
==== e(   5) =     0.24006 eV ==== 
     psi = 0.007*[#   2]+0.007*[#   6]+0.003*[#   1]+0.003*[#   5]
    |psi|^2 = 0.019
==== e(   6) =     0.40013 eV ==== 
     psi = 0.003*[#   3]+0.003*[#   4]+0.003*[#   7]+0.003*[#   8]
    |psi|^2 = 0.012
==== e(   7) =     0.40013 eV ==== 
     psi = 0.003*[#   3]+0.003*[#   4]+0.003*[#   7]+0.003*[#   8]
    |psi|^2 = 0.012
==== e(   8) =     0.46366 eV ==== 

    |psi|^2 = 0.000

 k =  -0.5000000000 -0.5000000000  0.2647691052
==== e(   1) =   -20.63164 eV ==== 
     psi = 0.477*[#   5]+0.477*[#   1]+0.013*[#   2]+0.013*[#   6]
    |psi|^2 = 0.982
==== e(   2) =   -13.61585 eV ==== 
     psi = 0.488*[#   2]+0.488*[#   6]+0.006*[#   1]+0.006*[#   5]
    |psi|^2 = 0.989
==== e(   3) =    -9.64479 eV ==== 
     psi = 0.240*[#   3]+0.240*[#   4]+0.240*[#   7]+0.240*[#   8]
    |psi|^2 = 0.961
==== e(   4) =    -9.64479 eV ==== 
     psi = 0.240*[#   3]+0.240*[#   4]+0.240*[#   7]+0.240*[#   8]
    |psi|^2 = 0.961
==== e(   5) =     0.27286 eV ==== 
     psi = 0.010*[#   2]+0.010*[#   6]+0.002*[#   1]+0.002*[#   5]
    |psi|^2 = 0.024
==== e(   6) =     0.43491 eV ==== 
     psi = 0.003*[#   3]+0.003*[#   4]+0.003*[#   7]+0.003*[#   8]
    |psi|^2 = 0.011
==== e(   7) =     0.43491 eV ==== 
     psi = 0.003*[#   3]+0.003*[#   4]+0.003*[#   7]+0.003*[#   8]
    |psi|^2 = 0.011
==== e(   8) =     0.49852 eV ==== 

    |psi|^2 = 0.000

 k =  -0.5000000000 -0.5000000000  0.3129089425
==== e(   1) =   -20.60806 eV ==== 
     psi = 0.472*[#   5]+0.472*[#   1]+0.018*[#   2]+0.018*[#   6]
    |psi|^2 = 0.981
==== e(   2) =   -13.66445 eV ==== 
     psi = 0.486*[#   2]+0.486*[#   6]+0.009*[#   1]+0.009*[#   5]
    |psi|^2 = 0.989
==== e(   3) =    -9.60529 eV ==== 
     psi = 0.241*[#   3]+0.241*[#   4]+0.241*[#   7]+0.241*[#   8]
    |psi|^2 = 0.962
==== e(   4) =    -9.60529 eV ==== 
     psi = 0.241*[#   3]+0.241*[#   4]+0.241*[#   7]+0.241*[#   8]
    |psi|^2 = 0.962
==== e(   5) =     0.31220 eV ==== 
     psi = 0.013*[#   2]+0.013*[#   6]+0.002*[#   1]+0.002*[#   5]
    |psi|^2 = 0.029
==== e(   6) =     0.47664 eV ==== 
     psi = 0.003*[#   3]+0.003*[#   4]+0.003*[#   7]+0.003*[#   8]
    |psi|^2 = 0.011
==== e(   7) =     0.47664 eV ==== 
     psi = 0.003*[#   3]+0.003*[#   4]+0.003*[#   7]+0.003*[#   8]
    |psi|^2 = 0.011
==== e(   8) =     0.54035 eV ==== 

    |psi|^2 = 0.000

 k =  -0.5000000000 -0.5000000000  0.3610487798
==== e(   1) =   -20.58057 eV ==== 
     psi = 0.467*[#   5]+0.466*[#   1]+0.024*[#   2]+0.024*[#   6]
    |psi|^2 = 0.981
==== e(   2) =   -13.72056 eV ==== 
     psi = 0.483*[#   2]+0.483*[#   6]+0.011*[#   1]+0.011*[#   5]
    |psi|^2 = 0.989
==== e(   3) =    -9.55920 eV ==== 
     psi = 0.241*[#   3]+0.241*[#   4]+0.241*[#   7]+0.241*[#   8]
    |psi|^2 = 0.963
==== e(   4) =    -9.55920 eV ==== 
     psi = 0.241*[#   3]+0.241*[#   4]+0.241*[#   7]+0.241*[#   8]
    |psi|^2 = 0.963
==== e(   5) =     0.35809 eV ==== 
     psi = 0.016*[#   2]+0.016*[#   6]+0.001*[#   1]+0.001*[#   5]
    |psi|^2 = 0.035
==== e(   6) =     0.52533 eV ==== 
     psi = 0.003*[#   3]+0.003*[#   4]+0.003*[#   7]+0.003*[#   8]
    |psi|^2 = 0.011
==== e(   7) =     0.52533 eV ==== 
     psi = 0.003*[#   3]+0.003*[#   4]+0.003*[#   7]+0.003*[#   8]
    |psi|^2 = 0.011
==== e(   8) =     0.58914 eV ==== 

    |psi|^2 = 0.000

 k =  -0.5000000000 -0.5000000000  0.4091886171
==== e(   1) =   -20.54919 eV ==== 
     psi = 0.460*[#   5]+0.460*[#   1]+0.030*[#   2]+0.030*[#   6]
    |psi|^2 = 0.981
==== e(   2) =   -13.78391 eV ==== 
     psi = 0.480*[#   2]+0.480*[#   6]+0.014*[#   1]+0.014*[#   5]
    |psi|^2 = 0.988
==== e(   3) =    -9.50654 eV ==== 
     psi = 0.241*[#   3]+0.241*[#   4]+0.241*[#   7]+0.241*[#   8]
    |psi|^2 = 0.964
==== e(   4) =    -9.50654 eV ==== 
     psi = 0.241*[#   3]+0.241*[#   4]+0.241*[#   7]+0.241*[#   8]
    |psi|^2 = 0.964
==== e(   5) =     0.41050 eV ==== 
     psi = 0.019*[#   2]+0.019*[#   6]
    |psi|^2 = 0.040
==== e(   6) =     0.58097 eV ==== 
     psi = 0.003*[#   3]+0.003*[#   4]+0.003*[#   7]+0.003*[#   8]
    |psi|^2 = 0.011
==== e(   7) =     0.58097 eV ==== 
     psi = 0.003*[#   3]+0.003*[#   4]+0.003*[#   7]+0.003*[#   8]
    |psi|^2 = 0.011
==== e(   8) =     0.64492 eV ==== 

    |psi|^2 = 0.000

 k =  -0.5000000000 -0.5000000000  0.4573284544
==== e(   1) =   -20.51396 eV ==== 
     psi = 0.453*[#   5]+0.453*[#   1]+0.037*[#   2]+0.037*[#   6]
    |psi|^2 = 0.981
==== e(   2) =   -13.85424 eV ==== 
     psi = 0.476*[#   2]+0.477*[#   6]+0.018*[#   1]+0.018*[#   5]
    |psi|^2 = 0.988
==== e(   3) =    -9.44732 eV ==== 
     psi = 0.241*[#   3]+0.241*[#   4]+0.241*[#   7]+0.241*[#   8]
    |psi|^2 = 0.965
==== e(   4) =    -9.44732 eV ==== 
     psi = 0.241*[#   3]+0.241*[#   4]+0.241*[#   7]+0.241*[#   8]
    |psi|^2 = 0.965
==== e(   5) =     0.46943 eV ==== 
     psi = 0.022*[#   2]+0.022*[#   6]
    |psi|^2 = 0.046
==== e(   6) =     0.64357 eV ==== 
     psi = 0.003*[#   3]+0.003*[#   4]+0.003*[#   7]+0.003*[#   8]
    |psi|^2 = 0.010
==== e(   7) =     0.64357 eV ==== 
     psi = 0.003*[#   3]+0.003*[#   4]+0.003*[#   7]+0.003*[#   8]
    |psi|^2 = 0.010
==== e(   8) =     0.70766 eV ==== 

    |psi|^2 = 0.000

 k =  -0.5000000000 -0.5000000000  0.5054682917
==== e(   1) =   -20.47486 eV ==== 
     psi = 0.446*[#   5]+0.446*[#   1]+0.045*[#   2]+0.045*[#   6]
    |psi|^2 = 0.980
==== e(   2) =   -13.93122 eV ==== 
     psi = 0.473*[#   2]+0.473*[#   6]+0.021*[#   1]+0.021*[#   5]
    |psi|^2 = 0.988
==== e(   3) =    -9.38153 eV ==== 
     psi = 0.242*[#   3]+0.242*[#   4]+0.242*[#   7]+0.242*[#   8]
    |psi|^2 = 0.966
==== e(   4) =    -9.38153 eV ==== 
     psi = 0.242*[#   3]+0.242*[#   4]+0.242*[#   7]+0.242*[#   8]
    |psi|^2 = 0.966
==== e(   5) =     0.53487 eV ==== 
     psi = 0.025*[#   2]+0.025*[#   6]
    |psi|^2 = 0.051
==== e(   6) =     0.71312 eV ==== 
     psi = 0.002*[#   3]+0.002*[#   4]+0.002*[#   7]+0.002*[#   8]
    |psi|^2 = 0.010
==== e(   7) =     0.71312 eV ==== 
     psi = 0.002*[#   3]+0.002*[#   4]+0.002*[#   7]+0.002*[#   8]
    |psi|^2 = 0.010
==== e(   8) =     0.77737 eV ==== 

    |psi|^2 = 0.000

 k =  -0.5000000000 -0.5000000000  0.5536081290
==== e(   1) =   -20.43196 eV ==== 
     psi = 0.438*[#   5]+0.438*[#   1]+0.052*[#   2]+0.052*[#   6]
    |psi|^2 = 0.980
==== e(   2) =   -14.01456 eV ==== 
     psi = 0.469*[#   2]+0.469*[#   6]+0.025*[#   1]+0.025*[#   5]
    |psi|^2 = 0.988
==== e(   3) =    -9.30919 eV ==== 
     psi = 0.242*[#   3]+0.242*[#   4]+0.242*[#   7]+0.242*[#   8]
    |psi|^2 = 0.968
==== e(   4) =    -9.30919 eV ==== 
     psi = 0.242*[#   3]+0.242*[#   4]+0.242*[#   7]+0.242*[#   8]
    |psi|^2 = 0.968
==== e(   5) =     0.60681 eV ==== 
     psi = 0.028*[#   2]+0.028*[#   6]
    |psi|^2 = 0.056
==== e(   6) =     0.78963 eV ==== 
     psi = 0.002*[#   3]+0.002*[#   4]+0.002*[#   7]+0.002*[#   8]
    |psi|^2 = 0.010
==== e(   7) =     0.78963 eV ==== 
     psi = 0.002*[#   3]+0.002*[#   4]+0.002*[#   7]+0.002*[#   8]
    |psi|^2 = 0.010
==== e(   8) =     0.85406 eV ==== 

    |psi|^2 = 0.000

 k =  -0.5000000000 -0.5000000000  0.6017479663
==== e(   1) =   -20.38525 eV ==== 
     psi = 0.430*[#   5]+0.430*[#   1]+0.060*[#   2]+0.060*[#   6]
    |psi|^2 = 0.980
==== e(   2) =   -14.10390 eV ==== 
     psi = 0.465*[#   2]+0.465*[#   6]+0.029*[#   1]+0.029*[#   5]
    |psi|^2 = 0.988
==== e(   3) =    -9.23030 eV ==== 
     psi = 0.242*[#   3]+0.242*[#   4]+0.242*[#   7]+0.242*[#   8]
    |psi|^2 = 0.969
==== e(   4) =    -9.23030 eV ==== 
     psi = 0.242*[#   3]+0.242*[#   4]+0.242*[#   7]+0.242*[#   8]
    |psi|^2 = 0.969
==== e(   5) =     0.68522 eV ==== 
     psi = 0.030*[#   2]+0.030*[#   6]
    |psi|^2 = 0.061
==== e(   6) =     0.87309 eV ==== 
     psi = 0.002*[#   3]+0.002*[#   4]+0.002*[#   7]+0.002*[#   8]
    |psi|^2 = 0.009
==== e(   7) =     0.87309 eV ==== 
     psi = 0.002*[#   3]+0.002*[#   4]+0.002*[#   7]+0.002*[#   8]
    |psi|^2 = 0.009
==== e(   8) =     0.93772 eV ==== 

    |psi|^2 = 0.000

 k =  -0.5000000000 -0.5000000000  0.6498878036
==== e(   1) =   -20.33478 eV ==== 
     psi = 0.421*[#   5]+0.421*[#   1]+0.069*[#   2]+0.068*[#   6]
    |psi|^2 = 0.979
==== e(   2) =   -14.19892 eV ==== 
     psi = 0.460*[#   2]+0.460*[#   6]+0.034*[#   1]+0.034*[#   5]
    |psi|^2 = 0.988
==== e(   3) =    -9.14487 eV ==== 
     psi = 0.243*[#   3]+0.243*[#   4]+0.243*[#   7]+0.243*[#   8]
    |psi|^2 = 0.970
==== e(   4) =    -9.14487 eV ==== 
     psi = 0.243*[#   3]+0.243*[#   4]+0.243*[#   7]+0.243*[#   8]
    |psi|^2 = 0.970
==== e(   5) =     0.77008 eV ==== 
     psi = 0.032*[#   2]+0.032*[#   6]
    |psi|^2 = 0.065
==== e(   6) =     0.96350 eV ==== 
     psi = 0.002*[#   3]+0.002*[#   4]+0.002*[#   7]+0.002*[#   8]
    |psi|^2 = 0.009
==== e(   7) =     0.96350 eV ==== 
     psi = 0.002*[#   3]+0.002*[#   4]+0.002*[#   7]+0.002*[#   8]
    |psi|^2 = 0.009
==== e(   8) =     1.02834 eV ==== 

    |psi|^2 = 0.000

 k =  -0.5000000000 -0.5000000000  0.6980276409
==== e(   1) =   -20.28057 eV ==== 
     psi = 0.412*[#   5]+0.412*[#   1]+0.077*[#   2]+0.077*[#   6]
    |psi|^2 = 0.979
==== e(   2) =   -14.29924 eV ==== 
     psi = 0.456*[#   2]+0.456*[#   6]+0.038*[#   1]+0.038*[#   5]
    |psi|^2 = 0.988
==== e(   3) =    -9.05291 eV ==== 
     psi = 0.243*[#   7]+0.243*[#   8]+0.243*[#   3]+0.243*[#   4]
    |psi|^2 = 0.972
==== e(   4) =    -9.05291 eV ==== 
     psi = 0.243*[#   7]+0.243*[#   8]+0.243*[#   3]+0.243*[#   4]
    |psi|^2 = 0.972
==== e(   5) =     0.86139 eV ==== 
     psi = 0.034*[#   2]+0.034*[#   6]
    |psi|^2 = 0.068
==== e(   6) =     1.06087 eV ==== 
     psi = 0.002*[#   3]+0.002*[#   4]+0.002*[#   7]+0.002*[#   8]
    |psi|^2 = 0.008
==== e(   7) =     1.06087 eV ==== 
     psi = 0.002*[#   3]+0.002*[#   4]+0.002*[#   7]+0.002*[#   8]
    |psi|^2 = 0.008
==== e(   8) =     1.12594 eV ==== 

    |psi|^2 = 0.000

 k =  -0.5000000000 -0.5000000000  0.7461674782
==== e(   1) =   -20.22264 eV ==== 
     psi = 0.404*[#   5]+0.403*[#   1]+0.086*[#   2]+0.086*[#   6]
    |psi|^2 = 0.978
==== e(   2) =   -14.40452 eV ==== 
     psi = 0.451*[#   6]+0.451*[#   2]+0.043*[#   1]+0.043*[#   5]
    |psi|^2 = 0.988
==== e(   3) =    -8.95443 eV ==== 
     psi = 0.243*[#   7]+0.243*[#   8]+0.243*[#   3]+0.243*[#   4]
    |psi|^2 = 0.973
==== e(   4) =    -8.95443 eV ==== 
     psi = 0.243*[#   7]+0.243*[#   8]+0.243*[#   3]+0.243*[#   4]
    |psi|^2 = 0.973
==== e(   5) =     0.95911 eV ==== 
     psi = 0.035*[#   2]+0.035*[#   6]
    |psi|^2 = 0.070
==== e(   6) =     1.16519 eV ==== 
     psi = 0.002*[#   3]+0.002*[#   4]+0.002*[#   7]+0.002*[#   8]
    |psi|^2 = 0.008
==== e(   7) =     1.16519 eV ==== 
     psi = 0.002*[#   3]+0.002*[#   4]+0.002*[#   7]+0.002*[#   8]
    |psi|^2 = 0.008
==== e(   8) =     1.23052 eV ==== 

    |psi|^2 = 0.000

 k =  -0.5000000000 -0.5000000000  0.7943073155
==== e(   1) =   -20.16105 eV ==== 
     psi = 0.395*[#   5]+0.394*[#   1]+0.095*[#   2]+0.094*[#   6]
    |psi|^2 = 0.978
==== e(   2) =   -14.51440 eV ==== 
     psi = 0.446*[#   6]+0.446*[#   2]+0.048*[#   1]+0.048*[#   5]
    |psi|^2 = 0.988
==== e(   3) =    -8.84943 eV ==== 
     psi = 0.244*[#   7]+0.244*[#   8]+0.244*[#   3]+0.244*[#   4]
    |psi|^2 = 0.975
==== e(   4) =    -8.84943 eV ==== 
     psi = 0.244*[#   7]+0.244*[#   8]+0.244*[#   3]+0.244*[#   4]
    |psi|^2 = 0.975
==== e(   5) =     1.06322 eV ==== 
     psi = 0.036*[#   2]+0.036*[#   6]
    |psi|^2 = 0.072
==== e(   6) =     1.27646 eV ==== 
     psi = 0.002*[#   3]+0.002*[#   4]+0.002*[#   7]+0.002*[#   8]
    |psi|^2 = 0.007
==== e(   7) =     1.27646 eV ==== 
     psi = 0.002*[#   3]+0.002*[#   4]+0.002*[#   7]+0.002*[#   8]
    |psi|^2 = 0.007
==== e(   8) =     1.34206 eV ==== 

    |psi|^2 = 0.000

 k =  -0.5000000000 -0.5000000000  0.8424471528
==== e(   1) =   -20.09582 eV ==== 
     psi = 0.385*[#   5]+0.385*[#   1]+0.103*[#   2]+0.103*[#   6]
    |psi|^2 = 0.978
==== e(   2) =   -14.62854 eV ==== 
     psi = 0.441*[#   6]+0.441*[#   2]+0.053*[#   1]+0.053*[#   5]
    |psi|^2 = 0.987
==== e(   3) =    -8.73794 eV ==== 
     psi = 0.244*[#   7]+0.244*[#   8]+0.244*[#   3]+0.244*[#   4]
    |psi|^2 = 0.976
==== e(   4) =    -8.73794 eV ==== 
     psi = 0.244*[#   7]+0.244*[#   8]+0.244*[#   3]+0.244*[#   4]
    |psi|^2 = 0.976
==== e(   5) =     1.17369 eV ==== 
     psi = 0.036*[#   2]+0.036*[#   6]
    |psi|^2 = 0.072
==== e(   6) =     1.39468 eV ==== 
     psi = 0.002*[#   3]+0.002*[#   4]+0.002*[#   7]+0.002*[#   8]
    |psi|^2 = 0.007
==== e(   7) =     1.39468 eV ==== 
     psi = 0.002*[#   3]+0.002*[#   4]+0.002*[#   7]+0.002*[#   8]
    |psi|^2 = 0.007
==== e(   8) =     1.46057 eV ==== 

    |psi|^2 = 0.000

 k =  -0.5000000000 -0.5000000000  0.8905869901
==== e(   1) =   -20.02700 eV ==== 
     psi = 0.376*[#   5]+0.376*[#   1]+0.112*[#   2]+0.112*[#   6]
    |psi|^2 = 0.977
==== e(   2) =   -14.74656 eV ==== 
     psi = 0.436*[#   6]+0.436*[#   2]+0.058*[#   1]+0.058*[#   5]
    |psi|^2 = 0.987
==== e(   3) =    -8.61995 eV ==== 
     psi = 0.245*[#   7]+0.245*[#   8]+0.244*[#   3]+0.244*[#   4]
    |psi|^2 = 0.978
==== e(   4) =    -8.61995 eV ==== 
     psi = 0.245*[#   7]+0.245*[#   8]+0.244*[#   3]+0.244*[#   4]
    |psi|^2 = 0.978
==== e(   5) =     1.29048 eV ==== 
     psi = 0.036*[#   2]+0.036*[#   6]
    |psi|^2 = 0.072
==== e(   6) =     1.51985 eV ==== 
     psi = 0.002*[#   3]+0.002*[#   4]+0.002*[#   7]+0.002*[#   8]
    |psi|^2 = 0.006
==== e(   7) =     1.51985 eV ==== 
     psi = 0.002*[#   3]+0.002*[#   4]+0.002*[#   7]+0.002*[#   8]
    |psi|^2 = 0.006
==== e(   8) =     1.58606 eV ==== 

    |psi|^2 = 0.000

 k =  -0.5000000000 -0.5000000000  0.9387268274
==== e(   1) =   -19.95462 eV ==== 
     psi = 0.367*[#   5]+0.367*[#   1]+0.121*[#   2]+0.121*[#   6]
    |psi|^2 = 0.977
==== e(   2) =   -14.86814 eV ==== 
     psi = 0.430*[#   6]+0.430*[#   2]+0.063*[#   1]+0.063*[#   5]
    |psi|^2 = 0.987
==== e(   3) =    -8.49549 eV ==== 
     psi = 0.245*[#   7]+0.245*[#   8]+0.245*[#   3]+0.245*[#   4]
    |psi|^2 = 0.979
==== e(   4) =    -8.49549 eV ==== 
     psi = 0.245*[#   7]+0.245*[#   8]+0.245*[#   3]+0.245*[#   4]
    |psi|^2 = 0.979
==== e(   5) =     1.41355 eV ==== 
     psi = 0.035*[#   2]+0.035*[#   6]
    |psi|^2 = 0.071
==== e(   6) =     1.65198 eV ==== 
     psi = 0.001*[#   3]+0.001*[#   4]+0.001*[#   7]+0.001*[#   8]
    |psi|^2 = 0.006
==== e(   7) =     1.65198 eV ==== 
     psi = 0.002*[#   3]+0.002*[#   4]+0.001*[#   7]+0.001*[#   8]
    |psi|^2 = 0.006
==== e(   8) =     1.71852 eV ==== 

    |psi|^2 = 0.000

 k =  -0.5000000000 -0.5000000000  0.9868666647
==== e(   1) =   -19.87872 eV ==== 
     psi = 0.358*[#   5]+0.358*[#   1]+0.131*[#   2]+0.130*[#   6]
    |psi|^2 = 0.976
==== e(   2) =   -14.99293 eV ==== 
     psi = 0.425*[#   6]+0.425*[#   2]+0.069*[#   1]+0.069*[#   5]
    |psi|^2 = 0.987
==== e(   3) =    -8.36456 eV ==== 
     psi = 0.245*[#   7]+0.245*[#   8]+0.245*[#   3]+0.245*[#   4]
    |psi|^2 = 0.981
==== e(   4) =    -8.36456 eV ==== 
     psi = 0.245*[#   7]+0.245*[#   8]+0.245*[#   3]+0.245*[#   4]
    |psi|^2 = 0.981
==== e(   5) =     1.54288 eV ==== 
     psi = 0.034*[#   2]+0.034*[#   6]
    |psi|^2 = 0.069
==== e(   6) =     1.68619 eV ==== 
     psi = 0.241*[#   3]+0.241*[#   4]+0.241*[#   7]+0.241*[#   8]
    |psi|^2 = 0.963
==== e(   7) =     1.68619 eV ==== 
     psi = 0.241*[#   3]+0.241*[#   4]+0.241*[#   7]+0.241*[#   8]
    |psi|^2 = 0.963
==== e(   8) =     1.79105 eV ==== 
     psi = 0.001*[#   7]+0.001*[#   8]+0.001*[#   3]+0.001*[#   4]
    |psi|^2 = 0.005

 k =  -0.5000000000 -0.5000000000  1.0350065020
==== e(   1) =   -19.79939 eV ==== 
     psi = 0.349*[#   5]+0.348*[#   1]+0.140*[#   2]+0.140*[#   6]
    |psi|^2 = 0.976
==== e(   2) =   -15.12060 eV ==== 
     psi = 0.419*[#   6]+0.419*[#   2]+0.074*[#   1]+0.074*[#   5]
    |psi|^2 = 0.987
==== e(   3) =    -8.22719 eV ==== 
     psi = 0.246*[#   7]+0.246*[#   8]+0.246*[#   3]+0.246*[#   4]
    |psi|^2 = 0.983
==== e(   4) =    -8.22719 eV ==== 
     psi = 0.246*[#   7]+0.246*[#   8]+0.246*[#   3]+0.246*[#   4]
    |psi|^2 = 0.983
==== e(   5) =     1.34819 eV ==== 
     psi = 0.241*[#   3]+0.241*[#   4]+0.241*[#   7]+0.241*[#   8]
    |psi|^2 = 0.965
==== e(   6) =     1.34819 eV ==== 
     psi = 0.241*[#   3]+0.241*[#   4]+0.241*[#   7]+0.241*[#   8]
    |psi|^2 = 0.965
==== e(   7) =     1.67839 eV ==== 
     psi = 0.033*[#   2]+0.033*[#   6]
    |psi|^2 = 0.067
==== e(   8) =     1.93707 eV ==== 
     psi = 0.001*[#   3]+0.001*[#   4]+0.001*[#   7]+0.001*[#   8]
    |psi|^2 = 0.005

 k =  -0.5000000000 -0.5000000000  1.0831463393
==== e(   1) =   -19.71663 eV ==== 
     psi = 0.339*[#   5]+0.339*[#   1]+0.149*[#   2]+0.149*[#   6]
    |psi|^2 = 0.976
==== e(   2) =   -15.25082 eV ==== 
     psi = 0.414*[#   6]+0.414*[#   2]+0.080*[#   1]+0.080*[#   5]
    |psi|^2 = 0.986
==== e(   3) =    -8.08339 eV ==== 
     psi = 0.246*[#   7]+0.246*[#   8]+0.246*[#   3]+0.246*[#   4]
    |psi|^2 = 0.984
==== e(   4) =    -8.08339 eV ==== 
     psi = 0.246*[#   7]+0.246*[#   8]+0.246*[#   3]+0.246*[#   4]
    |psi|^2 = 0.984
==== e(   5) =     1.01153 eV ==== 
     psi = 0.242*[#   3]+0.242*[#   4]+0.242*[#   7]+0.242*[#   8]
    |psi|^2 = 0.967
==== e(   6) =     1.01153 eV ==== 
     psi = 0.242*[#   3]+0.242*[#   4]+0.242*[#   7]+0.242*[#   8]
    |psi|^2 = 0.967
==== e(   7) =     1.82004 eV ==== 
     psi = 0.031*[#   2]+0.031*[#   6]
    |psi|^2 = 0.064
==== e(   8) =     2.09004 eV ==== 
     psi = 0.001*[#   3]+0.001*[#   4]+0.001*[#   7]+0.001*[#   8]
    |psi|^2 = 0.004

 k =  -0.5000000000 -0.5000000000  1.1312861766
==== e(   1) =   -19.63056 eV ==== 
     psi = 0.330*[#   5]+0.330*[#   1]+0.158*[#   2]+0.158*[#   6]
    |psi|^2 = 0.975
==== e(   2) =   -15.38327 eV ==== 
     psi = 0.408*[#   6]+0.408*[#   2]+0.085*[#   1]+0.085*[#   5]
    |psi|^2 = 0.986
==== e(   3) =    -7.93317 eV ==== 
     psi = 0.246*[#   7]+0.246*[#   8]+0.246*[#   3]+0.246*[#   4]
    |psi|^2 = 0.986
==== e(   4) =    -7.93317 eV ==== 
     psi = 0.246*[#   7]+0.246*[#   8]+0.246*[#   3]+0.246*[#   4]
    |psi|^2 = 0.986
==== e(   5) =     0.67672 eV ==== 
     psi = 0.242*[#   3]+0.242*[#   4]+0.242*[#   7]+0.242*[#   8]
    |psi|^2 = 0.969
==== e(   6) =     0.67672 eV ==== 
     psi = 0.242*[#   3]+0.242*[#   4]+0.242*[#   7]+0.242*[#   8]
    |psi|^2 = 0.969
==== e(   7) =     1.96776 eV ==== 
     psi = 0.030*[#   2]+0.030*[#   6]
    |psi|^2 = 0.060
==== e(   8) =     2.24995 eV ==== 

    |psi|^2 = 0.004

 k =  -0.5000000000 -0.5000000000  1.1794260139
==== e(   1) =   -19.54117 eV ==== 
     psi = 0.321*[#   5]+0.321*[#   1]+0.167*[#   2]+0.167*[#   6]
    |psi|^2 = 0.975
==== e(   2) =   -15.51766 eV ==== 
     psi = 0.402*[#   6]+0.402*[#   2]+0.091*[#   1]+0.091*[#   5]
    |psi|^2 = 0.986
==== e(   3) =    -7.77656 eV ==== 
     psi = 0.247*[#   7]+0.247*[#   8]+0.247*[#   3]+0.247*[#   4]
    |psi|^2 = 0.987
==== e(   4) =    -7.77656 eV ==== 
     psi = 0.247*[#   7]+0.247*[#   8]+0.247*[#   3]+0.247*[#   4]
    |psi|^2 = 0.987
==== e(   5) =     0.34423 eV ==== 
     psi = 0.243*[#   3]+0.243*[#   4]+0.243*[#   7]+0.243*[#   8]
    |psi|^2 = 0.971
==== e(   6) =     0.34423 eV ==== 
     psi = 0.243*[#   3]+0.243*[#   4]+0.243*[#   7]+0.243*[#   8]
    |psi|^2 = 0.971
==== e(   7) =     2.12149 eV ==== 
     psi = 0.028*[#   2]+0.028*[#   6]
    |psi|^2 = 0.056
==== e(   8) =     2.41681 eV ==== 

    |psi|^2 = 0.004

 k =  -0.5000000000 -0.5000000000  1.2275658512
==== e(   1) =   -19.44855 eV ==== 
     psi = 0.312*[#   5]+0.312*[#   1]+0.176*[#   2]+0.175*[#   6]
    |psi|^2 = 0.975
==== e(   2) =   -15.65372 eV ==== 
     psi = 0.396*[#   6]+0.396*[#   2]+0.097*[#   1]+0.096*[#   5]
    |psi|^2 = 0.985
==== e(   3) =    -7.61359 eV ==== 
     psi = 0.247*[#   7]+0.247*[#   8]+0.247*[#   3]+0.247*[#   4]
    |psi|^2 = 0.988
==== e(   4) =    -7.61359 eV ==== 
     psi = 0.247*[#   7]+0.247*[#   8]+0.247*[#   3]+0.247*[#   4]
    |psi|^2 = 0.988
==== e(   5) =     0.01445 eV ==== 
     psi = 0.243*[#   3]+0.243*[#   4]+0.243*[#   7]+0.243*[#   8]
    |psi|^2 = 0.973
==== e(   6) =     0.01445 eV ==== 
     psi = 0.243*[#   3]+0.243*[#   4]+0.243*[#   7]+0.243*[#   8]
    |psi|^2 = 0.973
==== e(   7) =     2.28113 eV ==== 
     psi = 0.025*[#   2]+0.025*[#   6]
    |psi|^2 = 0.051
==== e(   8) =     2.59062 eV ==== 

    |psi|^2 = 0.003

 k =  -0.5000000000 -0.5000000000  1.2757056885
==== e(   1) =   -19.35277 eV ==== 
     psi = 0.303*[#   5]+0.303*[#   1]+0.184*[#   2]+0.184*[#   6]
    |psi|^2 = 0.975
==== e(   2) =   -15.79112 eV ==== 
     psi = 0.390*[#   6]+0.390*[#   2]+0.102*[#   1]+0.102*[#   5]
    |psi|^2 = 0.985
==== e(   3) =    -7.44426 eV ==== 
     psi = 0.247*[#   7]+0.247*[#   8]+0.247*[#   3]+0.247*[#   4]
    |psi|^2 = 0.990
==== e(   4) =    -7.44426 eV ==== 
     psi = 0.247*[#   7]+0.247*[#   8]+0.247*[#   3]+0.247*[#   4]
    |psi|^2 = 0.990
==== e(   5) =    -0.31220 eV ==== 
     psi = 0.244*[#   3]+0.244*[#   4]+0.244*[#   7]+0.244*[#   8]
    |psi|^2 = 0.976
==== e(   6) =    -0.31220 eV ==== 
     psi = 0.244*[#   3]+0.244*[#   4]+0.244*[#   7]+0.244*[#   8]
    |psi|^2 = 0.976
==== e(   7) =     2.44660 eV ==== 
     psi = 0.023*[#   2]+0.023*[#   6]
    |psi|^2 = 0.047
==== e(   8) =     2.77137 eV ==== 

    |psi|^2 = 0.003

 k =  -0.5000000000 -0.5000000000  1.3238455258
==== e(   1) =   -19.25390 eV ==== 
     psi = 0.294*[#   5]+0.294*[#   1]+0.193*[#   2]+0.193*[#   6]
    |psi|^2 = 0.975
==== e(   2) =   -15.92962 eV ==== 
     psi = 0.384*[#   6]+0.384*[#   2]+0.108*[#   1]+0.108*[#   5]
    |psi|^2 = 0.985
==== e(   3) =    -7.26861 eV ==== 
     psi = 0.248*[#   7]+0.248*[#   8]+0.248*[#   3]+0.248*[#   4]
    |psi|^2 = 0.991
==== e(   4) =    -7.26861 eV ==== 
     psi = 0.248*[#   7]+0.248*[#   8]+0.248*[#   3]+0.248*[#   4]
    |psi|^2 = 0.991
==== e(   5) =    -0.63542 eV ==== 
     psi = 0.244*[#   3]+0.244*[#   4]+0.244*[#   7]+0.244*[#   8]
    |psi|^2 = 0.978
==== e(   6) =    -0.63542 eV ==== 
     psi = 0.244*[#   3]+0.244*[#   4]+0.244*[#   7]+0.244*[#   8]
    |psi|^2 = 0.978
==== e(   7) =     2.61777 eV ==== 
     psi = 0.021*[#   2]+0.021*[#   6]
    |psi|^2 = 0.042
==== e(   8) =     2.95906 eV ==== 

    |psi|^2 = 0.002

 k =  -0.5000000000 -0.5000000000  1.3719853631
==== e(   1) =   -19.15199 eV ==== 
     psi = 0.286*[#   5]+0.285*[#   1]+0.202*[#   2]+0.202*[#   6]
    |psi|^2 = 0.975
==== e(   2) =   -16.06896 eV ==== 
     psi = 0.378*[#   6]+0.378*[#   2]+0.114*[#   1]+0.114*[#   5]
    |psi|^2 = 0.984
==== e(   3) =    -7.08665 eV ==== 
     psi = 0.248*[#   7]+0.248*[#   8]+0.248*[#   3]+0.248*[#   4]
    |psi|^2 = 0.992
==== e(   4) =    -7.08665 eV ==== 
     psi = 0.248*[#   7]+0.248*[#   8]+0.248*[#   3]+0.248*[#   4]
    |psi|^2 = 0.992
==== e(   5) =    -0.95491 eV ==== 
     psi = 0.245*[#   3]+0.245*[#   4]+0.245*[#   7]+0.245*[#   8]
    |psi|^2 = 0.980
==== e(   6) =    -0.95491 eV ==== 
     psi = 0.245*[#   3]+0.245*[#   4]+0.245*[#   7]+0.245*[#   8]
    |psi|^2 = 0.980
==== e(   7) =     2.79452 eV ==== 
     psi = 0.018*[#   2]+0.018*[#   6]
    |psi|^2 = 0.037
==== e(   8) =     3.15369 eV ==== 

    |psi|^2 = 0.002

 k =  -0.5000000000 -0.5000000000  1.4201252004
==== e(   1) =   -19.04714 eV ==== 
     psi = 0.277*[#   5]+0.277*[#   1]+0.211*[#   2]+0.210*[#   6]
    |psi|^2 = 0.975
==== e(   2) =   -16.20888 eV ==== 
     psi = 0.372*[#   6]+0.372*[#   2]+0.120*[#   1]+0.120*[#   5]
    |psi|^2 = 0.984
==== e(   3) =    -6.89843 eV ==== 
     psi = 0.248*[#   7]+0.248*[#   8]+0.248*[#   3]+0.248*[#   4]
    |psi|^2 = 0.993
==== e(   4) =    -6.89843 eV ==== 
     psi = 0.248*[#   7]+0.248*[#   8]+0.248*[#   3]+0.248*[#   4]
    |psi|^2 = 0.993
==== e(   5) =    -1.27041 eV ==== 
     psi = 0.245*[#   3]+0.245*[#   4]+0.245*[#   7]+0.245*[#   8]
    |psi|^2 = 0.982
==== e(   6) =    -1.27041 eV ==== 
     psi = 0.245*[#   3]+0.245*[#   4]+0.245*[#   7]+0.245*[#   8]
    |psi|^2 = 0.982
==== e(   7) =     2.97670 eV ==== 
     psi = 0.016*[#   2]+0.016*[#   6]
    |psi|^2 = 0.032
==== e(   8) =     3.35526 eV ==== 

    |psi|^2 = 0.002

 k =  -0.5000000000 -0.5000000000  1.4682650377
==== e(   1) =   -18.93942 eV ==== 
     psi = 0.268*[#   5]+0.268*[#   1]+0.219*[#   2]+0.219*[#   6]
    |psi|^2 = 0.975
==== e(   2) =   -16.34914 eV ==== 
     psi = 0.366*[#   6]+0.366*[#   2]+0.126*[#   1]+0.126*[#   5]
    |psi|^2 = 0.984
==== e(   3) =    -6.70396 eV ==== 
     psi = 0.249*[#   7]+0.249*[#   8]+0.248*[#   3]+0.248*[#   4]
    |psi|^2 = 0.994
==== e(   4) =    -6.70396 eV ==== 
     psi = 0.249*[#   7]+0.249*[#   8]+0.248*[#   3]+0.248*[#   4]
    |psi|^2 = 0.994
==== e(   5) =    -1.58167 eV ==== 
     psi = 0.246*[#   3]+0.246*[#   4]+0.246*[#   7]+0.246*[#   8]
    |psi|^2 = 0.983
==== e(   6) =    -1.58167 eV ==== 
     psi = 0.246*[#   3]+0.246*[#   4]+0.246*[#   7]+0.246*[#   8]
    |psi|^2 = 0.983
==== e(   7) =     3.16413 eV ==== 
     psi = 0.014*[#   2]+0.014*[#   6]
    |psi|^2 = 0.028
==== e(   8) =     3.56377 eV ==== 

    |psi|^2 = 0.001

 k =  -0.5000000000 -0.5000000000  1.5164048750
==== e(   1) =   -18.82891 eV ==== 
     psi = 0.260*[#   5]+0.260*[#   1]+0.228*[#   2]+0.227*[#   6]
    |psi|^2 = 0.975
==== e(   2) =   -16.48952 eV ==== 
     psi = 0.360*[#   6]+0.359*[#   2]+0.132*[#   1]+0.132*[#   5]
    |psi|^2 = 0.983
==== e(   3) =    -6.50328 eV ==== 
     psi = 0.249*[#   7]+0.249*[#   8]+0.248*[#   3]+0.248*[#   4]
    |psi|^2 = 0.994
==== e(   4) =    -6.50328 eV ==== 
     psi = 0.249*[#   7]+0.249*[#   8]+0.248*[#   3]+0.248*[#   4]
    |psi|^2 = 0.994
==== e(   5) =    -1.88852 eV ==== 
     psi = 0.246*[#   3]+0.246*[#   4]+0.246*[#   7]+0.246*[#   8]
    |psi|^2 = 0.985
==== e(   6) =    -1.88852 eV ==== 
     psi = 0.246*[#   3]+0.246*[#   4]+0.246*[#   7]+0.246*[#   8]
    |psi|^2 = 0.985
==== e(   7) =     3.35660 eV ==== 
     psi = 0.012*[#   2]+0.012*[#   6]
    |psi|^2 = 0.024
==== e(   8) =     3.77921 eV ==== 

    |psi|^2 = 0.001

 k =  -0.5000000000 -0.5000000000  1.5645447123
==== e(   1) =   -18.71571 eV ==== 
     psi = 0.252*[#   5]+0.252*[#   1]+0.236*[#   2]+0.236*[#   6]
    |psi|^2 = 0.975
==== e(   2) =   -16.62980 eV ==== 
     psi = 0.353*[#   6]+0.353*[#   2]+0.138*[#   1]+0.138*[#   5]
    |psi|^2 = 0.983
==== e(   3) =    -6.29643 eV ==== 
     psi = 0.249*[#   7]+0.249*[#   8]+0.249*[#   3]+0.249*[#   4]
    |psi|^2 = 0.995
==== e(   4) =    -6.29643 eV ==== 
     psi = 0.249*[#   7]+0.249*[#   8]+0.249*[#   3]+0.249*[#   4]
    |psi|^2 = 0.995
==== e(   5) =    -2.19073 eV ==== 
     psi = 0.247*[#   3]+0.247*[#   4]+0.247*[#   7]+0.247*[#   8]
    |psi|^2 = 0.987
==== e(   6) =    -2.19073 eV ==== 
     psi = 0.247*[#   3]+0.247*[#   4]+0.247*[#   7]+0.247*[#   8]
    |psi|^2 = 0.987
==== e(   7) =     3.55387 eV ==== 
     psi = 0.010*[#   2]+0.010*[#   6]
    |psi|^2 = 0.020
==== e(   8) =     4.00158 eV ==== 

    |psi|^2 = 0.001

 k =  -0.5000000000 -0.5000000000  1.6126845496
==== e(   1) =   -18.59988 eV ==== 
     psi = 0.244*[#   2]+0.244*[#   5]+0.244*[#   6]+0.244*[#   1]
    |psi|^2 = 0.975
==== e(   2) =   -16.76976 eV ==== 
     psi = 0.347*[#   6]+0.346*[#   2]+0.145*[#   1]+0.144*[#   5]
    |psi|^2 = 0.982
==== e(   3) =    -6.08343 eV ==== 
     psi = 0.249*[#   7]+0.249*[#   8]+0.249*[#   3]+0.249*[#   4]
    |psi|^2 = 0.996
==== e(   4) =    -6.08343 eV ==== 
     psi = 0.249*[#   7]+0.249*[#   8]+0.249*[#   3]+0.249*[#   4]
    |psi|^2 = 0.996
==== e(   5) =    -2.48815 eV ==== 
     psi = 0.247*[#   3]+0.247*[#   4]+0.247*[#   7]+0.247*[#   8]
    |psi|^2 = 0.988
==== e(   6) =    -2.48815 eV ==== 
     psi = 0.247*[#   3]+0.247*[#   4]+0.247*[#   7]+0.247*[#   8]
    |psi|^2 = 0.988
==== e(   7) =     3.75564 eV ==== 
     psi = 0.008*[#   2]+0.008*[#   6]+0.001*[#   1]+0.001*[#   5]
    |psi|^2 = 0.017
==== e(   8) =     4.23089 eV ==== 

    |psi|^2 = 0.001

 k =  -0.5000000000 -0.5000000000  1.6608243869
==== e(   1) =   -18.48157 eV ==== 
     psi = 0.252*[#   2]+0.252*[#   6]+0.236*[#   5]+0.236*[#   1]
    |psi|^2 = 0.976
==== e(   2) =   -16.90921 eV ==== 
     psi = 0.340*[#   6]+0.340*[#   2]+0.151*[#   1]+0.151*[#   5]
    |psi|^2 = 0.982
==== e(   3) =    -5.86435 eV ==== 
     psi = 0.249*[#   7]+0.249*[#   8]+0.249*[#   3]+0.249*[#   4]
    |psi|^2 = 0.996
==== e(   4) =    -5.86435 eV ==== 
     psi = 0.249*[#   7]+0.249*[#   8]+0.249*[#   3]+0.249*[#   4]
    |psi|^2 = 0.996
==== e(   5) =    -2.78061 eV ==== 
     psi = 0.248*[#   3]+0.248*[#   4]+0.247*[#   7]+0.247*[#   8]
    |psi|^2 = 0.990
==== e(   6) =    -2.78061 eV ==== 
     psi = 0.248*[#   3]+0.248*[#   4]+0.247*[#   7]+0.247*[#   8]
    |psi|^2 = 0.990
==== e(   7) =     3.96154 eV ==== 
     psi = 0.006*[#   2]+0.006*[#   6]+0.002*[#   1]+0.002*[#   5]
    |psi|^2 = 0.015
==== e(   8) =     4.46713 eV ==== 

    |psi|^2 = 0.001

 k =  -0.5000000000 -0.5000000000  1.7089642242
==== e(   1) =   -18.36085 eV ==== 
     psi = 0.260*[#   2]+0.260*[#   6]+0.228*[#   5]+0.228*[#   1]
    |psi|^2 = 0.976
==== e(   2) =   -17.04797 eV ==== 
     psi = 0.334*[#   6]+0.333*[#   2]+0.157*[#   1]+0.157*[#   5]
    |psi|^2 = 0.981
==== e(   3) =    -5.63922 eV ==== 
     psi = 0.249*[#   7]+0.249*[#   8]+0.249*[#   3]+0.249*[#   4]
    |psi|^2 = 0.996
==== e(   4) =    -5.63922 eV ==== 
     psi = 0.249*[#   7]+0.249*[#   8]+0.249*[#   3]+0.249*[#   4]
    |psi|^2 = 0.996
==== e(   5) =    -3.06800 eV ==== 
     psi = 0.248*[#   3]+0.248*[#   4]+0.248*[#   7]+0.248*[#   8]
    |psi|^2 = 0.991
==== e(   6) =    -3.06800 eV ==== 
     psi = 0.248*[#   3]+0.248*[#   4]+0.248*[#   7]+0.248*[#   8]
    |psi|^2 = 0.991
==== e(   7) =     4.17116 eV ==== 
     psi = 0.004*[#   2]+0.004*[#   6]+0.003*[#   1]+0.003*[#   5]
    |psi|^2 = 0.014
==== e(   8) =     4.71029 eV ==== 

    |psi|^2 = 0.000

 k =  -0.5000000000 -0.5000000000  1.7571040615
==== e(   1) =   -18.23784 eV ==== 
     psi = 0.268*[#   2]+0.268*[#   6]+0.220*[#   5]+0.220*[#   1]
    |psi|^2 = 0.977
==== e(   2) =   -17.18584 eV ==== 
     psi = 0.327*[#   6]+0.326*[#   2]+0.164*[#   1]+0.164*[#   5]
    |psi|^2 = 0.981
==== e(   3) =    -5.40808 eV ==== 
     psi = 0.249*[#   7]+0.249*[#   8]+0.249*[#   3]+0.249*[#   4]
    |psi|^2 = 0.996
==== e(   4) =    -5.40808 eV ==== 
     psi = 0.249*[#   7]+0.249*[#   8]+0.249*[#   3]+0.249*[#   4]
    |psi|^2 = 0.996
==== e(   5) =    -3.35017 eV ==== 
     psi = 0.248*[#   3]+0.248*[#   4]+0.248*[#   7]+0.248*[#   8]
    |psi|^2 = 0.992
==== e(   6) =    -3.35017 eV ==== 
     psi = 0.248*[#   3]+0.248*[#   4]+0.248*[#   7]+0.248*[#   8]
    |psi|^2 = 0.992
==== e(   7) =     4.38397 eV ==== 
     psi = 0.004*[#   1]+0.004*[#   5]+0.003*[#   2]+0.003*[#   6]
    |psi|^2 = 0.015
==== e(   8) =     4.96038 eV ==== 

    |psi|^2 = 0.000

 k =  -0.5000000000 -0.5000000000  1.8052438988
==== e(   1) =   -18.11265 eV ==== 
     psi = 0.276*[#   2]+0.275*[#   6]+0.213*[#   5]+0.212*[#   1]
    |psi|^2 = 0.977
==== e(   2) =   -17.32266 eV ==== 
     psi = 0.320*[#   6]+0.319*[#   2]+0.171*[#   1]+0.170*[#   5]
    |psi|^2 = 0.980
==== e(   3) =    -5.17100 eV ==== 
     psi = 0.249*[#   7]+0.249*[#   8]+0.249*[#   3]+0.249*[#   4]
    |psi|^2 = 0.996
==== e(   4) =    -5.17100 eV ==== 
     psi = 0.249*[#   7]+0.249*[#   8]+0.249*[#   3]+0.249*[#   4]
    |psi|^2 = 0.996
==== e(   5) =    -3.62703 eV ==== 
     psi = 0.249*[#   3]+0.249*[#   4]+0.248*[#   7]+0.248*[#   8]
    |psi|^2 = 0.993
==== e(   6) =    -3.62703 eV ==== 
     psi = 0.249*[#   3]+0.249*[#   4]+0.248*[#   7]+0.248*[#   8]
    |psi|^2 = 0.993
==== e(   7) =     4.59934 eV ==== 
     psi = 0.006*[#   1]+0.006*[#   5]+0.002*[#   2]+0.002*[#   6]
    |psi|^2 = 0.016
==== e(   8) =     5.21738 eV ==== 

    |psi|^2 = 0.000

 k =  -0.5000000000 -0.5000000000  1.8533837361
==== e(   1) =   -17.98537 eV ==== 
     psi = 0.284*[#   2]+0.283*[#   6]+0.206*[#   5]+0.205*[#   1]
    |psi|^2 = 0.977
==== e(   2) =   -17.45825 eV ==== 
     psi = 0.313*[#   6]+0.312*[#   2]+0.177*[#   1]+0.177*[#   5]
    |psi|^2 = 0.980
==== e(   3) =    -4.92801 eV ==== 
     psi = 0.250*[#   7]+0.250*[#   8]+0.248*[#   3]+0.248*[#   4]
    |psi|^2 = 0.996
==== e(   4) =    -4.92801 eV ==== 
     psi = 0.250*[#   7]+0.250*[#   8]+0.248*[#   3]+0.248*[#   4]
    |psi|^2 = 0.996
==== e(   5) =    -3.89843 eV ==== 
     psi = 0.249*[#   3]+0.249*[#   4]+0.248*[#   7]+0.248*[#   8]
    |psi|^2 = 0.994
==== e(   6) =    -3.89843 eV ==== 
     psi = 0.249*[#   3]+0.249*[#   4]+0.248*[#   7]+0.248*[#   8]
    |psi|^2 = 0.994
==== e(   7) =     4.81649 eV ==== 
     psi = 0.009*[#   1]+0.009*[#   5]
    |psi|^2 = 0.019
==== e(   8) =     5.48130 eV ==== 

    |psi|^2 = 0.000

 k =  -0.5000000000 -0.5000000000  1.9015235734
==== e(   1) =   -17.85617 eV ==== 
     psi = 0.292*[#   2]+0.290*[#   6]+0.199*[#   5]+0.197*[#   1]
    |psi|^2 = 0.978
==== e(   2) =   -17.59247 eV ==== 
     psi = 0.307*[#   6]+0.304*[#   2]+0.185*[#   1]+0.183*[#   5]
    |psi|^2 = 0.979
==== e(   3) =    -4.67919 eV ==== 
     psi = 0.250*[#   7]+0.250*[#   8]+0.248*[#   3]+0.248*[#   4]
    |psi|^2 = 0.996
==== e(   4) =    -4.67919 eV ==== 
     psi = 0.250*[#   7]+0.250*[#   8]+0.248*[#   3]+0.248*[#   4]
    |psi|^2 = 0.996
==== e(   5) =    -4.16432 eV ==== 
     psi = 0.250*[#   3]+0.250*[#   4]+0.248*[#   7]+0.248*[#   8]
    |psi|^2 = 0.995
==== e(   6) =    -4.16432 eV ==== 
     psi = 0.250*[#   3]+0.250*[#   4]+0.248*[#   7]+0.248*[#   8]
    |psi|^2 = 0.995
==== e(   7) =     5.03444 eV ==== 
     psi = 0.012*[#   1]+0.012*[#   5]
    |psi|^2 = 0.025
==== e(   8) =     5.46771 eV ==== 
     psi = 0.021*[#   1]+0.021*[#   5]
    |psi|^2 = 0.043

 k =  -0.5000000000 -0.5000000000 -1.9496634107
==== e(   1) =   -17.72564 eV ==== 
     psi = 0.597*[#   2]+0.382*[#   5]
    |psi|^2 = 0.979
==== e(   2) =   -17.72466 eV ==== 
     psi = 0.597*[#   6]+0.382*[#   1]
    |psi|^2 = 0.979
==== e(   3) =    -4.42575 eV ==== 
     psi = 0.498*[#   7]+0.498*[#   8]
    |psi|^2 = 0.995
==== e(   4) =    -4.42575 eV ==== 
     psi = 0.498*[#   7]+0.498*[#   8]
    |psi|^2 = 0.995
==== e(   5) =    -4.42343 eV ==== 
     psi = 0.498*[#   3]+0.498*[#   4]
    |psi|^2 = 0.995
==== e(   6) =    -4.42343 eV ==== 
     psi = 0.498*[#   3]+0.498*[#   4]
    |psi|^2 = 0.995
==== e(   7) =     5.25194 eV ==== 
     psi = 0.033*[#   1]
    |psi|^2 = 0.033
==== e(   8) =     5.25208 eV ==== 
     psi = 0.033*[#   5]
    |psi|^2 = 0.033

Lowdin Charges: 

     Atom #   1: total charge =   3.8969, s =  0.8633, 
     Atom #   1: total charge =   3.8969, p =  3.0335, pz=  1.1001, px=  0.9667, py=  0.9667, 
     Atom #   2: total charge =   3.9483, s =  0.8635, 
     Atom #   2: total charge =   3.9483, p =  3.0848, pz=  1.1003, px=  0.9923, py=  0.9923, 
     Spilling Parameter:   0.0193

     PROJWFC      :      1.29s CPU      1.39s WALL


   This run was terminated on:   0:35: 6  16May2023            

=------------------------------------------------------------------------------=
   JOB DONE.
=------------------------------------------------------------------------------=
