
     Program BANDS v.7.2 starts on 16May2023 at  0:47:21 

     This program is part of the open-source Quantum ESPRESSO suite
     for quantum simulation of materials; please cite
         "P. Giannozzi et al., J. Phys.:Condens. Matter 21 395502 (2009);
         "P. Giannozzi et al., J. Phys.:Condens. Matter 29 465901 (2017);
         "P. Giannozzi et al., J. Chem. Phys. 152 154105 (2020);
          URL http://www.quantum-espresso.org", 
     in publications or presentations arising from this work. More details at
     http://www.quantum-espresso.org/quote

     Parallel version (MPI), running on     1 processors

     MPI processes distributed on     1 nodes
     127 MiB available memory on the printing compute node when the environment starts


     Reading xml data from directory:

     ./outdir/1c_112.save/
     file C.pbe-n-kjpaw_psl.1.0.0.UPF: wavefunction(s)  2S 2P renormalized

     IMPORTANT: XC functional enforced from input :
     Exchange-correlation= PBE
                           (   1   4   3   4   0   0   0)
     Any further DFT definition will be discarded
     Please, verify this is what you really want


     G-vector sticks info
     --------------------
     sticks:   dense  smooth     PW     G-vecs:    dense   smooth      PW
     Sum        5129    5129   1541                70613    70613   11663

     Using Slab Decomposition


     Check: negative core charge=   -0.000012

     negative rho (up, down):  1.535E-03 0.000E+00
     Reading collected, re-writing distributed wavefunctions
     high-symmetry point:  0.0000 0.0000 0.0000   x coordinate   0.0000
     high-symmetry point:  0.0000 0.0000 1.9497   x coordinate   1.9497

     Plottable bands (eV) written to file 6_c.bands_pp.dat.gnu
     Bands written to file 6_c.bands_pp.dat

 **************************************************************************

                    xk=(   0.00000,   0.00000,   0.00000  )

     point group D_4h(4/mmm)
     there are 10 classes
     the character table:

       E     2C4   C2    2C2'  2C2'' i     2S4   s_h   2s_v  2s_d 
A_1g   1.00  1.00  1.00  1.00  1.00  1.00  1.00  1.00  1.00  1.00
A_2g   1.00  1.00  1.00 -1.00 -1.00  1.00  1.00  1.00 -1.00 -1.00
B_1g   1.00 -1.00  1.00  1.00 -1.00  1.00 -1.00  1.00  1.00 -1.00
B_2g   1.00 -1.00  1.00 -1.00  1.00  1.00 -1.00  1.00 -1.00  1.00
E_g    2.00  0.00 -2.00  0.00  0.00  2.00  0.00 -2.00  0.00  0.00
A_1u   1.00  1.00  1.00  1.00  1.00 -1.00 -1.00 -1.00 -1.00 -1.00
A_2u   1.00  1.00  1.00 -1.00 -1.00 -1.00 -1.00 -1.00  1.00  1.00
B_1u   1.00 -1.00  1.00  1.00 -1.00 -1.00  1.00 -1.00 -1.00  1.00
B_2u   1.00 -1.00  1.00 -1.00  1.00 -1.00  1.00 -1.00  1.00 -1.00
E_u    2.00  0.00 -2.00  0.00  0.00 -2.00  0.00  2.00  0.00  0.00

     the symmetry operations in each class and the name of the first element:

     E        1
                                                                 
     2C4      7    8
                                                                 
     C2       2
                                                                 
     2C2'     3    4
                                                                 
     2C2''    5    6
                                                                 
     i        9
                                                                 
     2S4     15   16
                                                                 
     s_h     10
                                                                 
     2s_v    11   12
                                                                 
     2s_d    13   14
                                                                 

     Band symmetry, D_4h(4/mmm) point group:

     e(  1 -  1) =    -20.69126  eV     1   --> A_1g X_1  M_1  
     e(  2 -  2) =    -13.49119  eV     1   --> A_2u X_4' M_4' 
     e(  3 -  4) =     -9.74440  eV     2   --> E_u  X_5' M_5' 
     e(  5 -  5) =     -0.50093  eV     1   --> A_1g X_1  M_1  
     e(  6 -  6) =      0.98688  eV     1   --> B_1g X_2  M_2  
     e(  7 -  8) =      1.04425  eV     2   --> E_u  X_5' M_5' 
     e(  9 -  9) =      1.23842  eV     1   --> A_1g X_1  M_1  
     e( 10 - 10) =      2.10901  eV     1   --> B_2g X_3  M_3  
     e( 11 - 12) =      2.59555  eV     2   --> E_u  X_5' M_5' 
     e( 13 - 13) =      3.04241  eV     1   --> A_1g X_1  M_1  
     e( 14 - 14) =      4.19699  eV     1   --> A_1g X_1  M_1  
     e( 15 - 15) =      4.32885  eV     1   --> B_1g X_2  M_2  
     e( 16 - 16) =      5.62420  eV     1   --> B_2g X_3  M_3  

 **************************************************************************

 **************************************************************************

                    xk=(   0.00000,   0.00000,   0.09748  )

     point group C_4v (4mm) 
     there are  5 classes
     the character table:

       E     2C4   C2    2s_v  2s_d 
A_1    1.00  1.00  1.00  1.00  1.00
A_2    1.00  1.00  1.00 -1.00 -1.00
B_1    1.00 -1.00  1.00  1.00 -1.00
B_2    1.00 -1.00  1.00 -1.00  1.00
E      2.00  0.00 -2.00  0.00  0.00

     the symmetry operations in each class and the name of the first element:

     E        1
                                                                 
     2C4      3    4
                                                                 
     C2       2
                                                                 
     2s_v     5    6
                                                                 
     2s_d     7    8
                                                                 

     Band symmetry, C_4v (4mm)  point group:

     e(  1 -  1) =    -20.68316  eV     1   --> A_1  G_1 D_1   
     e(  2 -  2) =    -13.50827  eV     1   --> A_1  G_1 D_1   
     e(  3 -  4) =     -9.73089  eV     2   --> E    G_5 D_5   
     e(  5 -  5) =     -0.48697  eV     1   --> A_1  G_1 D_1   
     e(  6 -  6) =      1.00118  eV     1   --> B_1  G_3 D_2   
     e(  7 -  8) =      1.05849  eV     2   --> E    G_5 D_5   
     e(  9 -  9) =      1.25215  eV     1   --> A_1  G_1 D_1   
     e( 10 - 10) =      2.12330  eV     1   --> B_2  G_4 D_2'  
     e( 11 - 12) =      2.60979  eV     2   --> E    G_5 D_5   
     e( 13 - 13) =      3.05606  eV     1   --> A_1  G_1 D_1   
     e( 14 - 14) =      4.22045  eV     1   --> A_1  G_1 D_1   
     e( 15 - 15) =      4.34315  eV     1   --> B_1  G_3 D_2   
     e( 16 - 16) =      5.63849  eV     1   --> B_2  G_4 D_2'  

 **************************************************************************

 **************************************************************************

                    xk=(   0.00000,   0.00000,   0.19497  )

     Band symmetry, C_4v (4mm)  point group:

     e(  1 -  1) =    -20.65893  eV     1   --> A_1  G_1 D_1   
     e(  2 -  2) =    -13.55918  eV     1   --> A_1  G_1 D_1   
     e(  3 -  4) =     -9.69037  eV     2   --> E    G_5 D_5   
     e(  5 -  5) =     -0.44512  eV     1   --> A_1  G_1 D_1   
     e(  6 -  6) =      1.04406  eV     1   --> B_1  G_3 D_2   
     e(  7 -  8) =      1.10121  eV     2   --> E    G_5 D_5   
     e(  9 -  9) =      1.29333  eV     1   --> A_1  G_1 D_1   
     e( 10 - 10) =      2.16618  eV     1   --> B_2  G_4 D_2'  
     e( 11 - 12) =      2.65251  eV     2   --> E    G_5 D_5   
     e( 13 - 13) =      3.09698  eV     1   --> A_1  G_1 D_1   
     e( 14 - 14) =      4.29015  eV     1   --> A_1  G_1 D_1   
     e( 15 - 15) =      4.38602  eV     1   --> B_1  G_3 D_2   
     e( 16 - 16) =      5.68138  eV     1   -->   ?

 **************************************************************************

 **************************************************************************

                    xk=(   0.00000,   0.00000,   0.29245  )

     Band symmetry, C_4v (4mm)  point group:

     e(  1 -  1) =    -20.61858  eV     1   --> A_1  G_1 D_1   
     e(  2 -  2) =    -13.64286  eV     1   --> A_1  G_1 D_1   
     e(  3 -  4) =     -9.62285  eV     2   --> E    G_5 D_5   
     e(  5 -  5) =     -0.37539  eV     1   --> A_1  G_1 D_1   
     e(  6 -  6) =      1.11553  eV     1   --> B_1  G_3 D_2   
     e(  7 -  8) =      1.17241  eV     2   --> E    G_5 D_5   
     e(  9 -  9) =      1.36193  eV     1   --> A_1  G_1 D_1   
     e( 10 - 10) =      2.23765  eV     1   --> B_2  G_4 D_2'  
     e( 11 - 12) =      2.72371  eV     2   --> E    G_5 D_5   
     e( 13 - 13) =      3.16515  eV     1   --> A_1  G_1 D_1   
     e( 14 - 14) =      4.40468  eV     1   --> A_1  G_1 D_1   
     e( 15 - 15) =      4.45748  eV     1   --> B_1  G_3 D_2   
     e( 16 - 16) =      5.75297  eV     1   -->   ?

 **************************************************************************

 **************************************************************************

                    xk=(   0.00000,   0.00000,   0.38993  )

     Band symmetry, C_4v (4mm)  point group:

     e(  1 -  1) =    -20.56221  eV     1   --> A_1  G_1 D_1   
     e(  2 -  2) =    -13.75772  eV     1   --> A_1  G_1 D_1   
     e(  3 -  4) =     -9.52836  eV     2   --> E    G_5 D_5   
     e(  5 -  5) =     -0.27779  eV     1   --> A_1  G_1 D_1   
     e(  6 -  6) =      1.21558  eV     1   --> B_1  G_3 D_2   
     e(  7 -  8) =      1.27208  eV     2   --> E    G_5 D_5   
     e(  9 -  9) =      1.45792  eV     1   --> A_1  G_1 D_1   
     e( 10 - 10) =      2.33770  eV     1   --> B_2  G_4 D_2'  
     e( 11 - 12) =      2.82339  eV     2   --> E    G_5 D_5   
     e( 13 - 13) =      3.26056  eV     1   --> A_1  G_1 D_1   
     e( 14 - 14) =      4.55753  eV     1   --> B_1  G_3 D_2   
     e( 15 - 15) =      4.56139  eV     1   --> A_1  G_1 D_1   
     e( 16 - 16) =      5.60736  eV     1   -->   ?

 **************************************************************************

 **************************************************************************

                    xk=(   0.00000,   0.00000,   0.48742  )

     Band symmetry, C_4v (4mm)  point group:

     e(  1 -  1) =    -20.48998  eV     1   --> A_1  G_1 D_1   
     e(  2 -  2) =    -13.90159  eV     1   --> A_1  G_1 D_1   
     e(  3 -  4) =     -9.40694  eV     2   --> E    G_5 D_5   
     e(  5 -  5) =     -0.15237  eV     1   --> A_1  G_1 D_1   
     e(  6 -  6) =      1.34422  eV     1   --> B_1  G_3 D_2   
     e(  7 -  8) =      1.40023  eV     2   --> E    G_5 D_5   
     e(  9 -  9) =      1.58124  eV     1   --> A_1  G_1 D_1   
     e( 10 - 10) =      2.46634  eV     1   --> B_2  G_4 D_2'  
     e( 11 - 12) =      2.95154  eV     2   --> E    G_5 D_5   
     e( 13 - 13) =      3.38314  eV     1   --> A_1  G_1 D_1   
     e( 14 - 14) =      4.68616  eV     1   --> B_1  G_3 D_2   
     e( 15 - 15) =      4.75689  eV     1   --> A_1  G_1 D_1   
     e( 16 - 16) =      5.05794  eV     1   -->   ?

 **************************************************************************

 **************************************************************************

                    xk=(   0.00000,   0.00000,   0.58490  )

     Band symmetry, C_4v (4mm)  point group:

     e(  1 -  1) =    -20.40202  eV     1   --> A_1  G_1 D_1   
     e(  2 -  2) =    -14.07195  eV     1   --> A_1  G_1 D_1   
     e(  3 -  4) =     -9.25862  eV     2   --> E    G_5 D_5   
     e(  5 -  5) =      0.00081  eV     1   --> A_1  G_1 D_1   
     e(  6 -  6) =      1.50145  eV     1   --> B_1  G_3 D_2   
     e(  7 -  8) =      1.55685  eV     2   --> E    G_5 D_5   
     e(  9 -  9) =      1.73182  eV     1   --> A_1  G_1 D_1   
     e( 10 - 10) =      2.62357  eV     1   --> B_2  G_4 D_2'  
     e( 11 - 12) =      3.10816  eV     2   --> E    G_5 D_5   
     e( 13 - 13) =      3.53283  eV     1   --> A_1  G_1 D_1   
     e( 14 - 15) =      4.45153  eV     2   --> E    G_5 D_5   
     e( 16 - 16) =      4.84338  eV     1   --> B_1  G_3 D_2   

 **************************************************************************

 **************************************************************************

                    xk=(   0.00000,   0.00000,   0.68238  )

     Band symmetry, C_4v (4mm)  point group:

     e(  1 -  1) =    -20.29859  eV     1   --> A_1  G_1 D_1   
     e(  2 -  2) =    -14.26605  eV     1   --> A_1  G_1 D_1   
     e(  3 -  4) =     -9.08348  eV     2   --> E    G_5 D_5   
     e(  5 -  5) =      0.18169  eV     1   --> A_1  G_1 D_1   
     e(  6 -  6) =      1.68727  eV     1   --> B_1  G_3 D_2   
     e(  7 -  8) =      1.74194  eV     2   --> E    G_5 D_5   
     e(  9 -  9) =      1.90955  eV     1   --> A_1  G_1 D_1   
     e( 10 - 10) =      2.80938  eV     1   --> B_2  G_4 D_2'  
     e( 11 - 12) =      3.29324  eV     2   --> E    G_5 D_5   
     e( 13 - 13) =      3.70955  eV     1   --> A_1  G_1 D_1   
     e( 14 - 15) =      3.80673  eV     2   --> E    G_5 D_5   
     e( 16 - 16) =      5.02918  eV     1   --> B_1  G_3 D_2   

 **************************************************************************

 **************************************************************************

                    xk=(   0.00000,   0.00000,   0.77987  )

     Band symmetry, C_4v (4mm)  point group:

     e(  1 -  1) =    -20.17991  eV     1   --> A_1  G_1 D_1   
     e(  2 -  2) =    -14.48094  eV     1   --> A_1  G_1 D_1   
     e(  3 -  4) =     -8.88158  eV     2   --> E    G_5 D_5   
     e(  5 -  5) =      0.39018  eV     1   --> A_1  G_1 D_1   
     e(  6 -  6) =      1.90167  eV     1   --> B_1  G_3 D_2   
     e(  7 -  8) =      1.95548  eV     2   --> E    G_5 D_5   
     e(  9 -  9) =      2.11430  eV     1   --> A_1  G_1 D_1   
     e( 10 - 10) =      3.02378  eV     1   --> B_2  G_4 D_2'  
     e( 11 - 12) =      3.13808  eV     2   --> E    G_5 D_5   
     e( 13 - 14) =      3.50679  eV     2   --> E    G_5 D_5   
     e( 15 - 15) =      3.91318  eV     1   --> A_1  G_1 D_1   
     e( 16 - 16) =      5.24356  eV     1   --> B_1  G_3 D_2   

 **************************************************************************

 **************************************************************************

                    xk=(   0.00000,   0.00000,   0.87735  )

     Band symmetry, C_4v (4mm)  point group:

     e(  1 -  1) =    -20.04626  eV     1   --> A_1  G_1 D_1   
     e(  2 -  2) =    -14.71371  eV     1   --> A_1  G_1 D_1   
     e(  3 -  4) =     -8.65301  eV     2   --> E    G_5 D_5   
     e(  5 -  5) =      0.62616  eV     1   --> A_1  G_1 D_1   
     e(  6 -  6) =      2.14466  eV     1   --> B_1  G_3 D_2   
     e(  7 -  8) =      2.19748  eV     2   --> E    G_5 D_5   
     e(  9 -  9) =      2.34591  eV     1   --> A_1  G_1 D_1   
     e( 10 - 11) =      2.45663  eV     2   --> E    G_5 D_5   
     e( 12 - 12) =      3.26676  eV     1   --> B_2  G_4 D_2'  
     e( 13 - 14) =      3.74879  eV     2   --> E    G_5 D_5   
     e( 15 - 15) =      4.14360  eV     1   --> A_1  G_1 D_1   
     e( 16 - 16) =      5.48653  eV     1   --> B_1  G_3 D_2   

 **************************************************************************

 **************************************************************************

                    xk=(   0.00000,   0.00000,   0.97483  )

     Band symmetry, C_4v (4mm)  point group:

     e(  1 -  1) =    -19.89803  eV     1   --> A_1  G_1 D_1   
     e(  2 -  2) =    -14.96144  eV     1   --> A_1  G_1 D_1   
     e(  3 -  4) =     -8.39787  eV     2   --> E    G_5 D_5   
     e(  5 -  5) =      0.88947  eV     1   --> A_1  G_1 D_1   
     e(  6 -  7) =      1.77083  eV     2   --> E    G_5 D_5   
     e(  8 -  8) =      2.41624  eV     1   --> B_1  G_3 D_2   
     e(  9 - 10) =      2.46791  eV     2   --> E    G_5 D_5   
     e( 11 - 11) =      2.60416  eV     1   --> A_1  G_1 D_1   
     e( 12 - 12) =      3.53833  eV     1   --> B_2  G_4 D_2'  
     e( 13 - 14) =      4.01923  eV     2   --> E    G_5 D_5   
     e( 15 - 15) =      4.40061  eV     1   --> A_1  G_1 D_1   
     e( 16 - 16) =      5.75809  eV     1   --> B_1  G_3 D_2   

 **************************************************************************

 **************************************************************************

                    xk=(   0.00000,   0.00000,   1.07231  )

     Band symmetry, C_4v (4mm)  point group:

     e(  1 -  1) =    -19.73556  eV     1   --> A_1  G_1 D_1   
     e(  2 -  2) =    -15.22130  eV     1   --> A_1  G_1 D_1   
     e(  3 -  4) =     -8.11628  eV     2   --> E    G_5 D_5   
     e(  5 -  6) =      1.08716  eV     2   --> E    G_5 D_5   
     e(  7 -  7) =      1.17991  eV     1   --> A_1  G_1 D_1   
     e(  8 -  8) =      2.71640  eV     1   --> B_1  G_3 D_2   
     e(  9 - 10) =      2.76678  eV     2   --> E    G_5 D_5   
     e( 11 - 11) =      2.88877  eV     1   --> A_1  G_1 D_1   
     e( 12 - 12) =      3.83849  eV     1   --> B_2  G_4 D_2'  
     e( 13 - 14) =      4.31810  eV     2   --> E    G_5 D_5   
     e( 15 - 15) =      4.68398  eV     1   --> A_1  G_1 D_1   
     e( 16 - 16) =      6.05822  eV     1   --> B_1  G_3 D_2   

 **************************************************************************

 **************************************************************************

                    xk=(   0.00000,   0.00000,   1.16980  )

     Band symmetry, C_4v (4mm)  point group:

     e(  1 -  1) =    -19.55931  eV     1   --> A_1  G_1 D_1   
     e(  2 -  2) =    -15.49064  eV     1   --> A_1  G_1 D_1   
     e(  3 -  4) =     -7.80837  eV     2   --> E    G_5 D_5   
     e(  5 -  6) =      0.41053  eV     2   --> E    G_5 D_5   
     e(  7 -  7) =      1.49723  eV     1   --> A_1  G_1 D_1   
     e(  8 -  8) =      3.04515  eV     1   --> B_1  G_3 D_2   
     e(  9 - 10) =      3.09407  eV     2   --> E    G_5 D_5   
     e( 11 - 11) =      3.19939  eV     1   --> A_1  G_1 D_1   
     e( 12 - 12) =      4.16724  eV     1   --> B_2  G_4 D_2'  
     e( 13 - 14) =      4.64540  eV     2   --> E    G_5 D_5   
     e( 15 - 15) =      4.99344  eV     1   --> A_1  G_1 D_1   
     e( 16 - 16) =      6.38694  eV     1   --> B_1  G_3 D_2   

 **************************************************************************

 **************************************************************************

                    xk=(   0.00000,   0.00000,   1.26728  )

     Band symmetry, C_4v (4mm)  point group:

     e(  1 -  1) =    -19.36973  eV     1   --> A_1  G_1 D_1   
     e(  2 -  2) =    -15.76700  eV     1   --> A_1  G_1 D_1   
     e(  3 -  4) =     -7.47431  eV     2   --> E    G_5 D_5   
     e(  5 -  6) =     -0.25528  eV     2   --> E    G_5 D_5   
     e(  7 -  7) =      1.84106  eV     1   --> A_1  G_1 D_1   
     e(  8 -  8) =      3.40249  eV     1   --> B_1  G_3 D_2   
     e(  9 - 10) =      3.44976  eV     2   --> E    G_5 D_5   
     e( 11 - 11) =      3.53556  eV     1   --> A_1  G_1 D_1   
     e( 12 - 12) =      4.52457  eV     1   --> B_2  G_4 D_2'  
     e( 13 - 14) =      5.00110  eV     2   --> E    G_5 D_5   
     e( 15 - 15) =      5.32858  eV     1   --> A_1  G_1 D_1   
     e( 16 - 16) =      6.74425  eV     1   --> B_1  G_3 D_2   

 **************************************************************************

 **************************************************************************

                    xk=(   0.00000,   0.00000,   1.36476  )

     Band symmetry, C_4v (4mm)  point group:

     e(  1 -  1) =    -19.16745  eV     1   --> A_1  G_1 D_1   
     e(  2 -  2) =    -16.04801  eV     1   --> A_1  G_1 D_1   
     e(  3 -  4) =     -7.11431  eV     2   --> E    G_5 D_5   
     e(  5 -  6) =     -0.90722  eV     2   --> E    G_5 D_5   
     e(  7 -  7) =      2.21091  eV     1   --> A_1  G_1 D_1   
     e(  8 -  8) =      3.78841  eV     1   --> B_1  G_3 D_2   
     e(  9 - 10) =      3.83384  eV     2   --> E    G_5 D_5   
     e( 11 - 11) =      3.89665  eV     1   --> A_1  G_1 D_1   
     e( 12 - 12) =      4.91049  eV     1   --> B_2  G_4 D_2'  
     e( 13 - 14) =      5.38519  eV     2   --> E    G_5 D_5   
     e( 15 - 15) =      5.68892  eV     1   --> A_1  G_1 D_1   
     e( 16 - 16) =      6.89202  eV     1   --> A_1  G_1 D_1   

 **************************************************************************

 **************************************************************************

                    xk=(   0.00000,   0.00000,   1.46225  )

     Band symmetry, C_4v (4mm)  point group:

     e(  1 -  1) =    -18.95301  eV     1   --> A_1  G_1 D_1   
     e(  2 -  2) =    -16.33160  eV     1   --> A_1  G_1 D_1   
     e(  3 -  4) =     -6.72857  eV     2   --> E    G_5 D_5   
     e(  5 -  6) =     -1.54299  eV     2   --> E    G_5 D_5   
     e(  7 -  7) =      2.60611  eV     1   --> A_1  G_1 D_1   
     e(  8 -  8) =      4.20293  eV     1   --> B_1  G_3 D_2   
     e(  9 - 10) =      4.24627  eV     2   --> E    G_5 D_5   
     e( 11 - 11) =      4.28183  eV     1   --> A_1  G_1 D_1   
     e( 12 - 12) =      5.32499  eV     1   --> B_2  G_4 D_2'  
     e( 13 - 14) =      5.79765  eV     2   --> E    G_5 D_5   
     e( 15 - 15) =      6.07379  eV     1   --> A_1  G_1 D_1   
     e( 16 - 16) =      6.84093  eV     1   --> A_1  G_1 D_1   

 **************************************************************************

 **************************************************************************

                    xk=(   0.00000,   0.00000,   1.55973  )

     Band symmetry, C_4v (4mm)  point group:

     e(  1 -  1) =    -18.72711  eV     1   --> A_1  G_1 D_1   
     e(  2 -  2) =    -16.61578  eV     1   --> A_1  G_1 D_1   
     e(  3 -  4) =     -6.31734  eV     2   --> E    G_5 D_5   
     e(  5 -  6) =     -2.16069  eV     2   --> E    G_5 D_5   
     e(  7 -  7) =      3.02567  eV     1   --> A_1  G_1 D_1   
     e(  8 -  8) =      4.64602  eV     1   --> B_1  G_3 D_2   
     e(  9 - 10) =      4.68705  eV     2   --> E    G_5 D_5   
     e( 11 - 11) =      4.68998  eV     1   --> A_1  G_1 D_1   
     e( 12 - 12) =      5.76808  eV     1   --> B_2  G_4 D_2'  
     e( 13 - 14) =      6.23845  eV     2   --> E    G_5 D_5   
     e( 15 - 15) =      6.48231  eV     1   --> A_1  G_1 D_1   
     e( 16 - 16) =      6.63809  eV     1   --> A_1  G_1 D_1   

 **************************************************************************

 **************************************************************************

                    xk=(   0.00000,   0.00000,   1.65721  )

     Band symmetry, C_4v (4mm)  point group:

     e(  1 -  1) =    -18.49052  eV     1   --> A_1  G_1 D_1   
     e(  2 -  2) =    -16.89879  eV     1   --> A_1  G_1 D_1   
     e(  3 -  4) =     -5.88096  eV     2   --> E    G_5 D_5   
     e(  5 -  6) =     -2.75885  eV     2   --> E    G_5 D_5   
     e(  7 -  7) =      3.46815  eV     1   --> A_1  G_1 D_1   
     e(  8 -  8) =      5.11771  eV     1   --> B_1  G_3 D_2   
     e(  9 -  9) =      5.11954  eV     1   --> A_1  G_1 D_1   
     e( 10 - 11) =      5.15613  eV     2   --> E    G_5 D_5   
     e( 12 - 12) =      6.23975  eV     1   --> B_2  G_4 D_2'  
     e( 13 - 13) =      6.30036  eV     1   --> A_1  G_1 D_1   
     e( 14 - 15) =      6.70756  eV     2   --> E    G_5 D_5   
     e( 16 - 16) =      6.91327  eV     1   --> A_1  G_1 D_1   

 **************************************************************************

 **************************************************************************

                    xk=(   0.00000,   0.00000,   1.75470  )

     Band symmetry, C_4v (4mm)  point group:

     e(  1 -  1) =    -18.24403  eV     1   --> A_1  G_1 D_1   
     e(  2 -  2) =    -17.17898  eV     1   --> A_1  G_1 D_1   
     e(  3 -  4) =     -5.41974  eV     2   --> E    G_5 D_5   
     e(  5 -  6) =     -3.33618  eV     2   --> E    G_5 D_5   
     e(  7 -  7) =      3.93132  eV     1   --> A_1  G_1 D_1   
     e(  8 -  8) =      5.56837  eV     1   --> A_1  G_1 D_1   
     e(  9 -  9) =      5.61798  eV     1   --> B_1  G_3 D_2   
     e( 10 - 11) =      5.65348  eV     2   --> E    G_5 D_5   
     e( 12 - 12) =      5.87161  eV     1   --> A_1  G_1 D_1   
     e( 13 - 13) =      6.74002  eV     1   --> B_2  G_4 D_2'  
     e( 14 - 15) =      7.20495  eV     2   --> E    G_5 D_5   
     e( 16 - 16) =      7.36507  eV     1   --> A_1  G_1 D_1   

 **************************************************************************

 **************************************************************************

                    xk=(   0.00000,   0.00000,   1.85218  )

     Band symmetry, C_4v (4mm)  point group:

     e(  1 -  1) =    -17.98857  eV     1   --> A_1  G_1 D_1   
     e(  2 -  2) =    -17.45488  eV     1   --> A_1  G_1 D_1   
     e(  3 -  4) =     -4.93411  eV     2   --> E    G_5 D_5   
     e(  5 -  6) =     -3.89169  eV     2   --> E    G_5 D_5   
     e(  7 -  7) =      4.41163  eV     1   --> A_1  G_1 D_1   
     e(  8 -  8) =      5.39579  eV     1   --> A_1  G_1 D_1   
     e(  9 -  9) =      6.03347  eV     1   --> A_1  G_1 D_1   
     e( 10 - 10) =      6.14684  eV     1   --> B_1  G_3 D_2   
     e( 11 - 12) =      6.17905  eV     2   --> E    G_5 D_5   
     e( 13 - 13) =      6.99574  eV     1   --> A_1  G_1 D_1   
     e( 14 - 14) =      7.26886  eV     1   --> B_2  G_4 D_2'  
     e( 16 - 16) =      7.31461  eV     1   -->   ?

 **************************************************************************

 **************************************************************************

                    xk=(   0.00000,   0.00000,   1.94966  )

     point group D_4h(4/mmm)
     there are 10 classes
     the character table:

       E     2C4   C2    2C2'  2C2'' i     2S4   s_h   2s_v  2s_d 
A_1g   1.00  1.00  1.00  1.00  1.00  1.00  1.00  1.00  1.00  1.00
A_2g   1.00  1.00  1.00 -1.00 -1.00  1.00  1.00  1.00 -1.00 -1.00
B_1g   1.00 -1.00  1.00  1.00 -1.00  1.00 -1.00  1.00  1.00 -1.00
B_2g   1.00 -1.00  1.00 -1.00  1.00  1.00 -1.00  1.00 -1.00  1.00
E_g    2.00  0.00 -2.00  0.00  0.00  2.00  0.00 -2.00  0.00  0.00
A_1u   1.00  1.00  1.00  1.00  1.00 -1.00 -1.00 -1.00 -1.00 -1.00
A_2u   1.00  1.00  1.00 -1.00 -1.00 -1.00 -1.00 -1.00  1.00  1.00
B_1u   1.00 -1.00  1.00  1.00 -1.00 -1.00  1.00 -1.00 -1.00  1.00
B_2u   1.00 -1.00  1.00 -1.00  1.00 -1.00  1.00 -1.00  1.00 -1.00
E_u    2.00  0.00 -2.00  0.00  0.00 -2.00  0.00  2.00  0.00  0.00

     the symmetry operations in each class and the name of the first element:

     E        1
                                                                 
     2C4      7    8
                                                                 
     C2       2
                                                                 
     2C2'     3    4
                                                                 
     2C2''    5    6
                                                                 
     i        9
                                                                 
     2S4     15   16
                                                                 
     s_h     10
                                                                 
     2s_v    11   12
                                                                 
     2s_d    13   14
                                                                 

     Band symmetry, D_4h(4/mmm) point group:

     e(  1 -  1) =    -17.72564  eV     1   --> A_2u X_4' M_4' 
     e(  2 -  2) =    -17.72465  eV     1   --> A_1g X_1  M_1  
     e(  3 -  4) =     -4.42572  eV     2   --> E_g  X_5  M_5  
     e(  5 -  6) =     -4.42341  eV     2   --> E_u  X_5' M_5' 
     e(  7 -  8) =      4.90314  eV     2   --> A_1g X_1  M_1  
     e(  7 -  8) =      4.90314  eV     2   --> A_2u X_4' M_4' 
     e(  9 - 10) =      6.51082  eV     2   --> A_1g X_1  M_1  
     e(  9 - 10) =      6.51082  eV     2   --> A_2u X_4' M_4' 
     e( 11 - 12) =      6.70429  eV     2   --> B_1g X_2  M_2  
     e( 11 - 12) =      6.70429  eV     2   --> B_2u X_3' M_3' 
     e( 13 - 16) =      6.73274  eV     4   --> E_g  X_5  M_5  
     e( 13 - 16) =      6.73274  eV     4   --> E_u  X_5' M_5' 

 **************************************************************************

     BANDS        :     15.38s CPU     17.72s WALL


   This run was terminated on:   0:47:39  16May2023            

=------------------------------------------------------------------------------=
   JOB DONE.
=------------------------------------------------------------------------------=
