
     Program PWSCF v.7.2 starts on 28May2023 at  0:19:52 

     This program is part of the open-source Quantum ESPRESSO suite
     for quantum simulation of materials; please cite
         "P. Giannozzi et al., J. Phys.:Condens. Matter 21 395502 (2009);
         "P. Giannozzi et al., J. Phys.:Condens. Matter 29 465901 (2017);
         "P. Giannozzi et al., J. Chem. Phys. 152 154105 (2020);
          URL http://www.quantum-espresso.org", 
     in publications or presentations arising from this work. More details at
     http://www.quantum-espresso.org/quote

     Parallel version (MPI), running on     1 processors

     MPI processes distributed on     1 nodes
     439 MiB available memory on the printing compute node when the environment starts

     Reading input from 1.b2n2.hse.scf.in

     Current dimensions of program PWSCF are:
     Max number of different atomic species (ntypx) = 10
     Max number of k-points (npk) =  40000
     Max angular momentum in pseudopotentials (lmaxx) =  4
     file N.pbe-n-kjpaw_psl.1.0.0.UPF: wavefunction(s)  2S renormalized

     IMPORTANT: XC functional enforced from input :
     Exchange-correlation= HSE
                           (   1   4  12   4   0   0   0)
     EXX-fraction              =        0.25
     Any further DFT definition will be discarded
     Please, verify this is what you really want

     Message from routine setup :
     BEWARE: nonlinear core correction is not consistent with hybrid XC
     Message from routine setup:
     using ibrav=0 with symmetry is DISCOURAGED, use correct ibrav instead

     Subspace diagonalization in iterative solution of the eigenvalue problem:
     a serial algorithm will be used

     EXX: q-point mesh:     1    1    1
     EXX: setup a grid of 25 q-points centered on each k-point
     (k+q)-points:
   0.0000000   0.0000000   0.0000000         1    1
  -0.0021958   0.1223085   0.0000000         2    1
  -0.0043916   0.2446170   0.0000000         3    1
  -0.0065875   0.3669255   0.0000000         4    1
   0.1429201  -0.0022264   0.0000000         5    1
   0.1407243   0.1200821   0.0000000         6    1
   0.1385285   0.2423906   0.0000000         7    1
   0.1363327   0.3646991   0.0000000         8    1
   0.1495076  -0.3691518   0.0000000         9    1
   0.1473118  -0.2468433   0.0000000        10    1
   0.1451160  -0.1245349   0.0000000        11    1
   0.2858403  -0.0044527   0.0000000        12    1
   0.2836444   0.1178558   0.0000000        13    1
   0.2814486   0.2401643   0.0000000        14    1
   0.2792528   0.3624728   0.0000000        15    1
   0.2924277  -0.3713782   0.0000000        16    1
   0.2902319  -0.2490697   0.0000000        17    1
   0.2880361  -0.1267612   0.0000000        18    1
   0.4287604  -0.0066791   0.0000000        19    1
   0.4265646   0.1156294   0.0000000        20    1
   0.4243688   0.2379379   0.0000000        21    1
   0.4221729   0.3602464   0.0000000        22    1
   0.4353479  -0.3736046   0.0000000        23    1
   0.4331520  -0.2512961   0.0000000        24    1
   0.4309562  -0.1289876   0.0000000        25    1

     G-vector sticks info
     --------------------
     sticks:   dense  smooth     PW     G-vecs:    dense   smooth      PW
     Sum        1315    1315    367                43143    43143    6409

     Using Slab Decomposition



     bravais-lattice index     =            0
     lattice parameter (alat)  =       8.4275  a.u.
     unit-cell volume          =     903.8296 (a.u.)^3
     number of atoms/cell      =            8
     number of atomic types    =            2
     number of electrons       =        32.00
     number of Kohn-Sham states=           25
     kinetic-energy cutoff     =      50.0000  Ry
     charge density cutoff     =     200.0000  Ry
     cutoff for Fock operator  =     200.0000  Ry
     scf convergence threshold =      1.0E-08
     mixing beta               =       0.7000
     number of iterations used =            8  plain     mixing
     Exchange-correlation= HSE
                           (   1   4  12   4   0   0   0)
     EXX-fraction              =        0.25

     celldm(1)=   8.427464  celldm(2)=   0.000000  celldm(3)=   0.000000
     celldm(4)=   0.000000  celldm(5)=   0.000000  celldm(6)=   0.000000

     crystal axes: (cart. coord. in units of alat)
               a(1) = (   0.999839   0.017950   0.000000 )  
               a(2) = (   0.018200   1.168333   0.000000 )  
               a(3) = (   0.000000   0.000000   1.293065 )  

     reciprocal axes: (cart. coord. in units 2 pi/alat)
               b(1) = (  1.000441 -0.015585  0.000000 )  
               b(2) = ( -0.015371  0.856159  0.000000 )  
               b(3) = (  0.000000  0.000000  0.773356 )  


     PseudoPot. # 1 for B  read from file:
     ../B.pbe-n-kjpaw_psl.1.0.0.UPF
     MD5 check sum: 8c825a5969375aca5c2c6ad5945b3059
     Pseudo is Projector augmented-wave + core cor, Zval =  3.0
     Generated using &quot;atomic&quot; code by A. Dal Corso  v.6.3
     Shape of augmentation charge: PSQ
     Using radial grid of 1059 points,  4 beta functions with: 
                l(1) =   0
                l(2) =   0
                l(3) =   1
                l(4) =   1
     Q(r) pseudized with 0 coefficients 


     PseudoPot. # 2 for N  read from file:
     ../N.pbe-n-kjpaw_psl.1.0.0.UPF
     MD5 check sum: 14c48229446f9f2d411169a3abcbc3fa
     Pseudo is Projector augmented-wave + core cor, Zval =  5.0
     Generated using &quot;atomic&quot; code by A. Dal Corso  v.6.3
     Shape of augmentation charge: PSQ
     Using radial grid of 1085 points,  4 beta functions with: 
                l(1) =   0
                l(2) =   0
                l(3) =   1
                l(4) =   1
     Q(r) pseudized with 0 coefficients 


     atomic species   valence    mass     pseudopotential
        B              3.00    10.81100     B ( 1.00)
        N              5.00    14.00670     N ( 1.00)

      2 Sym. Ops. (no inversion) found



   Cartesian axes

     site n.     atom                  positions (alat units)
         1           B   tau(   1) = (   0.1957447   0.4525303   0.0000000  )
         2           B   tau(   2) = (   0.2048277   1.0367407   0.0000000  )
         3           B   tau(   3) = (   0.8199101   0.4406320   0.0000000  )
         4           B   tau(   4) = (   0.8290195   1.0247947   0.0000000  )
         5           N   tau(   5) = (   0.3470003   0.1740639   0.0000000  )
         6           N   tau(   6) = (   0.3561289   0.7581659   0.0000000  )
         7           N   tau(   7) = (   0.6595607   0.1350455   0.0000000  )
         8           N   tau(   8) = (   0.6686506   0.7192202   0.0000000  )

     number of k points=    25
                       cart. coord. in units 2pi/alat
        k(    1) = (   0.0000000   0.0000000   0.0000000), wk =   0.0408163
        k(    2) = (  -0.0021958   0.1223085   0.0000000), wk =   0.0816327
        k(    3) = (  -0.0043916   0.2446170   0.0000000), wk =   0.0816327
        k(    4) = (  -0.0065875   0.3669255   0.0000000), wk =   0.0816327
        k(    5) = (   0.1429201  -0.0022264   0.0000000), wk =   0.0816327
        k(    6) = (   0.1407243   0.1200821   0.0000000), wk =   0.0816327
        k(    7) = (   0.1385285   0.2423906   0.0000000), wk =   0.0816327
        k(    8) = (   0.1363327   0.3646991   0.0000000), wk =   0.0816327
        k(    9) = (   0.1495076  -0.3691518   0.0000000), wk =   0.0816327
        k(   10) = (   0.1473118  -0.2468433   0.0000000), wk =   0.0816327
        k(   11) = (   0.1451160  -0.1245349   0.0000000), wk =   0.0816327
        k(   12) = (   0.2858403  -0.0044527   0.0000000), wk =   0.0816327
        k(   13) = (   0.2836444   0.1178558   0.0000000), wk =   0.0816327
        k(   14) = (   0.2814486   0.2401643   0.0000000), wk =   0.0816327
        k(   15) = (   0.2792528   0.3624728   0.0000000), wk =   0.0816327
        k(   16) = (   0.2924277  -0.3713782   0.0000000), wk =   0.0816327
        k(   17) = (   0.2902319  -0.2490697   0.0000000), wk =   0.0816327
        k(   18) = (   0.2880361  -0.1267612   0.0000000), wk =   0.0816327
        k(   19) = (   0.4287604  -0.0066791   0.0000000), wk =   0.0816327
        k(   20) = (   0.4265646   0.1156294   0.0000000), wk =   0.0816327
        k(   21) = (   0.4243688   0.2379379   0.0000000), wk =   0.0816327
        k(   22) = (   0.4221729   0.3602464   0.0000000), wk =   0.0816327
        k(   23) = (   0.4353479  -0.3736046   0.0000000), wk =   0.0816327
        k(   24) = (   0.4331520  -0.2512961   0.0000000), wk =   0.0816327
        k(   25) = (   0.4309562  -0.1289876   0.0000000), wk =   0.0816327

     Dense  grid:    43143 G-vectors     FFT dimensions: (  40,  45,  50)

     Estimated max dynamical RAM per process >     995.98 MB
     EXX: ACE will be initialized later

     Check: negative core charge=   -0.000023

     Initial potential from superposition of free atoms

     starting charge      31.9988, renormalised to      32.0000
     Starting wfcs are   32 randomized atomic wfcs

     total cpu time spent up to now is        5.9 secs

     Self-consistent Calculation

     iteration #  1     ecut=    50.00 Ry     beta= 0.70
     Davidson diagonalization with overlap
     ethr =  1.00E-02,  avg # of iterations =  4.2

     negative rho (up, down):  4.633E-06 0.000E+00

     total cpu time spent up to now is       20.2 secs

     total energy              =    -158.69960720 Ry
     estimated scf accuracy    <       0.92348710 Ry

     iteration #  2     ecut=    50.00 Ry     beta= 0.70
     Davidson diagonalization with overlap
     ethr =  2.89E-03,  avg # of iterations =  3.4

     negative rho (up, down):  4.225E-05 0.000E+00

     total cpu time spent up to now is       32.4 secs

     total energy              =    -158.76660514 Ry
     estimated scf accuracy    <       0.41135183 Ry

     iteration #  3     ecut=    50.00 Ry     beta= 0.70
     Davidson diagonalization with overlap
     ethr =  1.29E-03,  avg # of iterations =  2.1

     negative rho (up, down):  2.194E-04 0.000E+00

     total cpu time spent up to now is       43.1 secs

     total energy              =    -158.88477315 Ry
     estimated scf accuracy    <       0.11997368 Ry

     iteration #  4     ecut=    50.00 Ry     beta= 0.70
     Davidson diagonalization with overlap
     ethr =  3.75E-04,  avg # of iterations =  2.1

     negative rho (up, down):  4.466E-04 0.000E+00

     total cpu time spent up to now is       52.3 secs

     total energy              =    -158.90346647 Ry
     estimated scf accuracy    <       0.00122333 Ry

     iteration #  5     ecut=    50.00 Ry     beta= 0.70
     Davidson diagonalization with overlap
     ethr =  3.82E-06,  avg # of iterations =  9.2

     negative rho (up, down):  5.529E-04 0.000E+00

     total cpu time spent up to now is       67.8 secs

     total energy              =    -158.90395055 Ry
     estimated scf accuracy    <       0.00008399 Ry

     iteration #  6     ecut=    50.00 Ry     beta= 0.70
     Davidson diagonalization with overlap
     ethr =  2.62E-07,  avg # of iterations =  1.9

     negative rho (up, down):  5.460E-04 0.000E+00

     total cpu time spent up to now is       76.8 secs

     total energy              =    -158.90395711 Ry
     estimated scf accuracy    <       0.00000417 Ry

     iteration #  7     ecut=    50.00 Ry     beta= 0.70
     Davidson diagonalization with overlap
     ethr =  1.30E-08,  avg # of iterations =  2.4

     negative rho (up, down):  5.454E-04 0.000E+00

     total cpu time spent up to now is       87.8 secs

     total energy              =    -158.90395837 Ry
     estimated scf accuracy    <       0.00000124 Ry

     iteration #  8     ecut=    50.00 Ry     beta= 0.70
     Davidson diagonalization with overlap
     ethr =  3.89E-09,  avg # of iterations =  2.0

     negative rho (up, down):  5.457E-04 0.000E+00

     total cpu time spent up to now is       97.3 secs

     total energy              =    -158.90395854 Ry
     estimated scf accuracy    <       0.00000025 Ry

     iteration #  9     ecut=    50.00 Ry     beta= 0.70
     Davidson diagonalization with overlap
     ethr =  7.88E-10,  avg # of iterations =  1.8

     negative rho (up, down):  5.457E-04 0.000E+00

     total cpu time spent up to now is      106.2 secs

     total energy              =    -158.90395857 Ry
     estimated scf accuracy    <       0.00000002 Ry

     iteration # 10     ecut=    50.00 Ry     beta= 0.70
     Davidson diagonalization with overlap
     ethr =  6.27E-11,  avg # of iterations =  2.3

     negative rho (up, down):  5.457E-04 0.000E+00

     total cpu time spent up to now is      116.7 secs

     End of self-consistent calculation

          k = 0.0000 0.0000 0.0000 (  5411 PWs)   bands (ev):

   -19.4692 -18.0744 -13.0772 -12.1762  -9.8871  -9.2149  -7.8455  -5.6302
    -5.4643  -5.1773  -3.1071  -2.5918  -2.2521  -0.6847   0.1423   1.2169
     2.7720   4.0786   4.1084   6.7807   7.8080   8.1066   9.3782   9.4577
     9.9544

          k =-0.0022 0.1223 0.0000 (  5409 PWs)   bands (ev):

   -19.4150 -18.1659 -13.0367 -12.2134  -9.7244  -9.1683  -7.9057  -5.4807
    -5.4784  -5.3837  -3.2953  -2.4406  -2.4312  -0.6050  -0.0062   1.1841
     2.8040   4.0651   4.2575   7.1002   8.1182   8.1992   8.3351   9.7769
    10.1574

          k =-0.0044 0.2446 0.0000 (  5407 PWs)   bands (ev):

   -19.2573 -18.4040 -12.9197 -12.3372  -9.2608  -9.0366  -8.0465  -6.2436
    -5.1465  -5.0453  -3.7484  -2.9329  -2.0383  -0.3932  -0.3712   0.9215
     3.0693   4.0012   4.6630   7.0477   7.8939   8.6201   9.2202   9.6234
    10.4000

          k =-0.0066 0.3669 0.0000 (  5402 PWs)   bands (ev):

   -19.0123 -18.7107 -12.7413 -12.5311  -8.8550  -8.7961  -7.9662  -7.1935
    -4.7679  -4.3923  -4.2803  -3.6394  -1.4948  -0.9173  -0.0011   0.4629
     3.4910   3.8256   5.2712   6.0667   8.8961   9.0366   9.3711   9.9147
    10.4331

          k = 0.1429-0.0022 0.0000 (  5414 PWs)   bands (ev):

   -19.4440 -18.0505 -13.3241 -12.3122  -9.9037  -8.7651  -7.6498  -5.7708
    -5.3781  -5.1268  -3.0832  -2.3699  -2.2814  -1.0413  -0.3228   1.2487
     2.7450   4.2452   4.5691   6.4530   7.6231   8.1741   8.5176   9.4634
     9.7436

          k = 0.1407 0.1201 0.0000 (  5411 PWs)   bands (ev):

   -19.3907 -18.1403 -13.2670 -12.3894  -9.6952  -8.7758  -7.6390  -5.6735
    -5.4027  -5.3070  -3.2380  -2.4979  -2.2041  -0.9205  -0.4449   0.8964
     3.1606   4.3881   4.4725   6.6876   7.7527   8.2989   8.4969   8.6437
     9.6201

          k = 0.1385 0.2424 0.0000 (  5414 PWs)   bands (ev):

   -19.2339 -18.3772 -13.1288 -12.5551  -9.1551  -8.7243  -7.7390  -6.1366
    -5.2712  -5.0813  -3.6638  -2.9812  -1.9299  -0.7126  -0.6369   0.4677
     3.6397   4.3065   4.7874   7.2477   7.4273   8.0552   8.5800   9.2877
    10.1189

          k = 0.1363 0.3647 0.0000 (  5417 PWs)   bands (ev):

   -18.9896 -18.6834 -12.9254 -12.7768  -8.6700  -8.4156  -7.8627  -7.0248
    -4.7165  -4.6223  -4.1827  -3.7013  -1.5366  -1.0531  -0.2014  -0.0123
     4.0088   4.1233   5.3880   6.2494   8.1425   8.3939   8.8627   9.7255
    10.5842

          k = 0.1495-0.3692 0.0000 (  5408 PWs)   bands (ev):

   -18.9850 -18.6885 -13.0007 -12.6882  -8.8251  -8.3151  -7.6620  -7.2169
    -4.6668  -4.4742  -4.2449  -3.8600  -1.4394  -1.1081  -0.4559   0.3593
     3.5321   4.4622   5.4400   6.1724   8.1419   8.7221   9.1829   9.3913
    10.0172

          k = 0.1473-0.2468 0.0000 (  5412 PWs)   bands (ev):

   -19.2306 -18.3819 -13.1824 -12.4698  -9.3348  -8.5156  -7.7780  -6.2395
    -5.1404  -5.0474  -3.7294  -3.1352  -1.8275  -0.7965  -0.7141   0.9756
     2.9373   4.6094   4.8196   7.1191   7.6940   8.1846   9.1076   9.3988
     9.5109

          k = 0.1451-0.1245 0.0000 (  5407 PWs)   bands (ev):

   -19.3889 -18.1432 -13.2947 -12.3343  -9.7715  -8.6768  -7.7137  -5.5879
    -5.4517  -5.2899  -3.2851  -2.6005  -2.1383  -0.9976  -0.4239   1.4022
     2.5316   4.4031   4.6228   6.8519   7.9396   8.0929   8.5924   8.8202
     9.4838

          k = 0.2858-0.0045 0.0000 (  5396 PWs)   bands (ev):

   -19.3851 -17.9947 -13.7773 -12.6023  -9.8724  -7.7420  -7.4621  -5.8049
    -5.1514  -5.0114  -3.0277  -2.6669  -1.7505  -1.6616  -1.3789   1.2991
     2.7429   4.6599   5.6624   5.7639   6.6309   7.2664   8.2181   9.4001
    10.2347

          k = 0.2836 0.1179 0.0000 (  5387 PWs)   bands (ev):

   -19.3321 -18.0836 -13.7174 -12.6997  -9.6509  -7.8066  -7.3299  -5.7793
    -5.2613  -5.0884  -3.1508  -2.6948  -1.7067  -1.6210  -1.5283   0.6972
     3.4710   4.8004   5.5133   5.9284   6.8651   7.4208   8.4961   8.9342
     9.2585

          k = 0.2814 0.2402 0.0000 (  5395 PWs)   bands (ev):

   -19.1758 -18.3194 -13.5687 -12.9059  -9.0804  -7.8675  -7.1878  -5.9538
    -5.5089  -4.8771  -3.5240  -3.1411  -1.7209  -1.6265  -1.3166   0.0290
     4.2577   5.1954   5.2552   6.6120   7.3460   7.7320   7.8943   8.6927
     9.7613

          k = 0.2793 0.3625 0.0000 (  5401 PWs)   bands (ev):

   -18.9320 -18.6247 -13.3463 -13.1655  -8.2417  -8.0433  -7.1789  -6.7300
    -4.9402  -4.5341  -4.0002  -3.8826  -1.6904  -1.6178  -0.8441  -0.5909
     4.8288   4.9573   5.7872   6.7160   7.5528   7.9141   8.0122   9.0183
     9.0288

          k = 0.2924-0.3714 0.0000 (  5391 PWs)   bands (ev):

   -18.9260 -18.6316 -13.4180 -13.0801  -8.5593  -7.4638  -7.1767  -7.0630
    -4.6572  -4.4575  -4.2026  -4.0932  -1.6124  -1.5886  -1.1078  -0.2200
     4.1997   5.4466   5.8941   6.5591   7.4500   8.0474   8.4700   8.5301
     9.1852

          k = 0.2902-0.2491 0.0000 (  5399 PWs)   bands (ev):

   -19.1714 -18.3257 -13.6193 -12.8221  -9.2363  -7.5141  -7.3468  -6.1504
    -5.2785  -4.8239  -3.6176  -3.4840  -1.5829  -1.4935  -1.4858   0.5181
     3.4263   5.2601   5.6825   6.9357   7.0333   7.5823   8.0888   9.1685
     9.3805

          k = 0.2880-0.1268 0.0000 (  5402 PWs)   bands (ev):

   -19.3299 -18.0875 -13.7434 -12.6443  -9.7238  -7.6426  -7.4526  -5.6527
    -5.3544  -5.0613  -3.2143  -2.9455  -1.7039  -1.6114  -1.3783   1.2387
     2.7138   4.8284   5.7286   6.1922   6.6653   7.5981   8.3860   8.7268
     9.8116

          k = 0.4288-0.0067 0.0000 (  5382 PWs)   bands (ev):

   -19.3355 -17.9478 -14.0813 -12.8207  -9.8004  -7.5487  -6.7412  -5.5755
    -4.9522  -4.9165  -3.0193  -2.9813  -2.2974  -2.2646  -1.2012   1.3103
     2.8280   5.2126   5.3166   5.6787   6.4036   6.7331   7.9231   9.3543
     9.7519

          k = 0.4266 0.1156 0.0000 (  5378 PWs)   bands (ev):

   -19.2819 -18.0375 -14.0277 -12.9121  -9.5926  -7.3898  -6.8269  -5.5344
    -5.1911  -4.8523  -3.1005  -2.8667  -2.5708  -2.1848  -1.3428   0.6790
     3.5858   5.3834   5.4696   5.9697   6.5676   6.5949   8.2000   9.2746
     9.6334

          k = 0.4244 0.2379 0.0000 (  5394 PWs)   bands (ev):

   -19.1251 -18.2731 -13.8811 -13.1317  -9.0248  -7.0559  -7.0049  -5.8374
    -5.3333  -4.6490  -3.4351  -3.2103  -2.6345  -1.8853  -1.6441  -0.1552
     4.6112   5.8754   6.0000   6.3025   6.6834   7.0252   8.4739   8.7011
     8.8758

          k = 0.4222 0.3602 0.0000 (  5378 PWs)   bands (ev):

   -18.8812 -18.5779 -13.6553 -13.4111  -8.1863  -7.4789  -6.7471  -6.4560
    -4.8925  -4.3242  -3.9890  -3.8641  -2.3232  -1.9829  -1.4048  -0.9076
     5.5375   5.7975   6.4588   6.8778   7.3888   7.6745   7.7093   8.1697
     8.2987

          k = 0.4353-0.3736 0.0000 (  5374 PWs)   bands (ev):

   -18.8784 -18.5811 -13.6826 -13.3784  -8.2924  -7.2486  -6.8179  -6.5286
    -4.7118  -4.2812  -4.2443  -3.9139  -2.2540  -1.9527  -1.5173  -0.7552
     5.0572   6.2144   6.6130   7.1752   7.2536   7.4723   7.4899   7.8065
     8.8018

          k = 0.4332-0.2513 0.0000 (  5385 PWs)   bands (ev):

   -19.1231 -18.2761 -13.9003 -13.0995  -9.0815  -7.1430  -6.7416  -5.9952
    -5.2216  -4.6181  -3.6001  -3.4823  -2.3701  -1.9595  -1.5791   0.0370
     4.1472   5.9625   6.3082   6.5287   6.5976   6.9304   8.1752   8.5979
     8.9778

          k = 0.4310-0.1290 0.0000 (  5385 PWs)   bands (ev):

   -19.2809 -18.0393 -14.0375 -12.8906  -9.6202  -7.4384  -6.6994  -5.4864
    -5.2731  -4.8363  -3.2003  -3.1308  -2.2932  -2.2216  -1.2934   0.8893
     3.2242   5.5020   5.5565   5.8879   6.5541   6.7445   8.2314   9.1275
     9.2532

     highest occupied, lowest unoccupied level (ev):     1.4022    2.5316

!    total energy              =    -158.90395858 Ry
     estimated scf accuracy    <          5.5E-10 Ry

     convergence has been achieved in  10 iterations
