
     Program PWSCF v.7.2 starts on 28May2023 at  0:46: 3 

     This program is part of the open-source Quantum ESPRESSO suite
     for quantum simulation of materials; please cite
         "P. Giannozzi et al., J. Phys.:Condens. Matter 21 395502 (2009);
         "P. Giannozzi et al., J. Phys.:Condens. Matter 29 465901 (2017);
         "P. Giannozzi et al., J. Chem. Phys. 152 154105 (2020);
          URL http://www.quantum-espresso.org", 
     in publications or presentations arising from this work. More details at
     http://www.quantum-espresso.org/quote

     Parallel version (MPI), running on     1 processors

     MPI processes distributed on     1 nodes
     619 MiB available memory on the printing compute node when the environment starts

     Reading input from 1.b2n2.scf.in

     Current dimensions of program PWSCF are:
     Max number of different atomic species (ntypx) = 10
     Max number of k-points (npk) =  40000
     Max angular momentum in pseudopotentials (lmaxx) =  4
     Found identity + (  0.0000 -0.5000  0.0000) symmetry
     This is a supercell, fractional translations are disabled

     Subspace diagonalization in iterative solution of the eigenvalue problem:
     a serial algorithm will be used


     G-vector sticks info
     --------------------
     sticks:   dense  smooth     PW     G-vecs:    dense   smooth      PW
     Sum        2081    2081    573               148991   148991   21433

     Using Slab Decomposition



     bravais-lattice index     =            8
     lattice parameter (alat)  =       8.6360  a.u.
     unit-cell volume          =    1541.9944 (a.u.)^3
     number of atoms/cell      =            8
     number of atomic types    =            2
     number of electrons       =        32.00
     number of Kohn-Sham states=           30
     kinetic-energy cutoff     =      80.0000  Ry
     charge density cutoff     =     320.0000  Ry
     scf convergence threshold =      1.0E-08
     mixing beta               =       0.7000
     number of iterations used =            8  plain     mixing
     Exchange-correlation= PBE
                           (   1   4   3   4   0   0   0)

     celldm(1)=   8.636048  celldm(2)=   1.094092  celldm(3)=   2.188184
     celldm(4)=   0.000000  celldm(5)=   0.000000  celldm(6)=   0.000000

     crystal axes: (cart. coord. in units of alat)
               a(1) = (   1.000000   0.000000   0.000000 )  
               a(2) = (   0.000000   1.094092   0.000000 )  
               a(3) = (   0.000000   0.000000   2.188184 )  

     reciprocal axes: (cart. coord. in units 2 pi/alat)
               b(1) = (  1.000000  0.000000  0.000000 )  
               b(2) = (  0.000000  0.914000  0.000000 )  
               b(3) = (  0.000000  0.000000  0.457000 )  


     PseudoPot. # 1 for B  read from file:
     ../B_pbe_v1.01.uspp.F.UPF
     MD5 check sum: d081ebb89d0c768e112975f650467a00
     Pseudo is Ultrasoft + core correction, Zval =  3.0
     Generated by new atomic code, or converted to UPF format
     Using radial grid of  781 points,  4 beta functions with: 
                l(1) =   0
                l(2) =   0
                l(3) =   1
                l(4) =   1
     Q(r) pseudized with  8 coefficients,  rinner =    1.100   1.100   1.100


     PseudoPot. # 2 for N  read from file:
     ../N.oncvpsp.upf
     MD5 check sum: 563d65bfb082928f0c9eb97172f6c357
     Pseudo is Norm-conserving + core correction, Zval =  5.0
     Generated using ONCVPSP code by D. R. Hamann
     Using radial grid of 1058 points,  4 beta functions with: 
                l(1) =   0
                l(2) =   0
                l(3) =   1
                l(4) =   1

     atomic species   valence    mass     pseudopotential
        B              3.00    10.81100     B ( 1.00)
        N              5.00    14.00670     N ( 1.00)

     No symmetry found



   Cartesian axes

     site n.     atom                  positions (alat units)
         1           B   tau(   1) = (   0.1859956   0.4093249   0.1094092  )
         2           B   tau(   2) = (   0.8161926   0.4093249   0.1094092  )
         3           N   tau(   3) = (   0.3435449   0.1367615   0.1094092  )
         4           N   tau(   4) = (   0.6586433   0.1367615   0.1094092  )
         5           B   tau(   5) = (   0.1859956   0.9563709   0.1094092  )
         6           B   tau(   6) = (   0.8161926   0.9563709   0.1094092  )
         7           N   tau(   7) = (   0.3435449   0.6838074   0.1094092  )
         8           N   tau(   8) = (   0.6586433   0.6838074   0.1094092  )

     number of k points=    41
                       cart. coord. in units 2pi/alat
        k(    1) = (   0.0000000   0.0000000   0.0000000), wk =   0.0246914
        k(    2) = (   0.0000000   0.1015556   0.0000000), wk =   0.0493827
        k(    3) = (   0.0000000   0.2031111   0.0000000), wk =   0.0493827
        k(    4) = (   0.0000000   0.3046667   0.0000000), wk =   0.0493827
        k(    5) = (   0.0000000   0.4062222   0.0000000), wk =   0.0493827
        k(    6) = (   0.1111111   0.0000000   0.0000000), wk =   0.0493827
        k(    7) = (   0.1111111   0.1015556   0.0000000), wk =   0.0493827
        k(    8) = (   0.1111111   0.2031111   0.0000000), wk =   0.0493827
        k(    9) = (   0.1111111   0.3046667   0.0000000), wk =   0.0493827
        k(   10) = (   0.1111111   0.4062222   0.0000000), wk =   0.0493827
        k(   11) = (   0.2222222   0.0000000   0.0000000), wk =   0.0493827
        k(   12) = (   0.2222222   0.1015556   0.0000000), wk =   0.0493827
        k(   13) = (   0.2222222   0.2031111   0.0000000), wk =   0.0493827
        k(   14) = (   0.2222222   0.3046667   0.0000000), wk =   0.0493827
        k(   15) = (   0.2222222   0.4062222   0.0000000), wk =   0.0493827
        k(   16) = (   0.3333333   0.0000000   0.0000000), wk =   0.0493827
        k(   17) = (   0.3333333   0.1015556   0.0000000), wk =   0.0493827
        k(   18) = (   0.3333333   0.2031111   0.0000000), wk =   0.0493827
        k(   19) = (   0.3333333   0.3046667   0.0000000), wk =   0.0493827
        k(   20) = (   0.3333333   0.4062222   0.0000000), wk =   0.0493827
        k(   21) = (   0.4444444   0.0000000   0.0000000), wk =   0.0493827
        k(   22) = (   0.4444444   0.1015556   0.0000000), wk =   0.0493827
        k(   23) = (   0.4444444   0.2031111   0.0000000), wk =   0.0493827
        k(   24) = (   0.4444444   0.3046667   0.0000000), wk =   0.0493827
        k(   25) = (   0.4444444   0.4062222   0.0000000), wk =   0.0493827
        k(   26) = (  -0.1111111   0.1015556   0.0000000), wk =   0.0493827
        k(   27) = (  -0.1111111   0.2031111   0.0000000), wk =   0.0493827
        k(   28) = (  -0.1111111   0.3046667   0.0000000), wk =   0.0493827
        k(   29) = (  -0.1111111   0.4062222   0.0000000), wk =   0.0493827
        k(   30) = (  -0.2222222   0.1015556   0.0000000), wk =   0.0493827
        k(   31) = (  -0.2222222   0.2031111   0.0000000), wk =   0.0493827
        k(   32) = (  -0.2222222   0.3046667   0.0000000), wk =   0.0493827
        k(   33) = (  -0.2222222   0.4062222   0.0000000), wk =   0.0493827
        k(   34) = (  -0.3333333   0.1015556   0.0000000), wk =   0.0493827
        k(   35) = (  -0.3333333   0.2031111   0.0000000), wk =   0.0493827
        k(   36) = (  -0.3333333   0.3046667   0.0000000), wk =   0.0493827
        k(   37) = (  -0.3333333   0.4062222   0.0000000), wk =   0.0493827
        k(   38) = (  -0.4444444   0.1015556   0.0000000), wk =   0.0493827
        k(   39) = (  -0.4444444   0.2031111   0.0000000), wk =   0.0493827
        k(   40) = (  -0.4444444   0.3046667   0.0000000), wk =   0.0493827
        k(   41) = (  -0.4444444   0.4062222   0.0000000), wk =   0.0493827

     Dense  grid:   148991 G-vectors     FFT dimensions: (  50,  54, 108)

     Estimated max dynamical RAM per process >     570.61 MB

     Check: negative core charge=   -0.000004

     Initial potential from superposition of free atoms

     starting charge      31.9988, renormalised to      32.0000

     negative rho (up, down):  2.418E-08 0.000E+00
     Starting wfcs are   32 randomized atomic wfcs

     total cpu time spent up to now is       27.1 secs

     Self-consistent Calculation

     iteration #  1     ecut=    80.00 Ry     beta= 0.70
     Davidson diagonalization with overlap
     ethr =  1.00E-02,  avg # of iterations =  7.2

     total cpu time spent up to now is      155.8 secs

     total energy              =    -109.07490885 Ry
     estimated scf accuracy    <       0.91738759 Ry

     iteration #  2     ecut=    80.00 Ry     beta= 0.70
     Davidson diagonalization with overlap
     ethr =  2.87E-03,  avg # of iterations =  4.5

     negative rho (up, down):  7.781E-08 0.000E+00

     total cpu time spent up to now is      242.8 secs

     total energy              =    -109.13941348 Ry
     estimated scf accuracy    <       0.33588103 Ry

     iteration #  3     ecut=    80.00 Ry     beta= 0.70
     Davidson diagonalization with overlap
     ethr =  1.05E-03,  avg # of iterations =  3.3

     negative rho (up, down):  1.340E-06 0.000E+00

     total cpu time spent up to now is      320.7 secs

     total energy              =    -109.24692560 Ry
     estimated scf accuracy    <       0.10967544 Ry

     iteration #  4     ecut=    80.00 Ry     beta= 0.70
     Davidson diagonalization with overlap
     ethr =  3.43E-04,  avg # of iterations =  4.7

     negative rho (up, down):  5.316E-06 0.000E+00

     total cpu time spent up to now is      392.4 secs

     total energy              =    -109.26202038 Ry
     estimated scf accuracy    <       0.00321877 Ry

     iteration #  5     ecut=    80.00 Ry     beta= 0.70
     Davidson diagonalization with overlap
     c_bands:  1 eigenvalues not converged
     c_bands:  1 eigenvalues not converged
     ethr =  1.01E-05,  avg # of iterations = 10.9

     negative rho (up, down):  9.689E-06 0.000E+00

     total cpu time spent up to now is      523.0 secs

     total energy              =    -109.26340210 Ry
     estimated scf accuracy    <       0.00014891 Ry

     iteration #  6     ecut=    80.00 Ry     beta= 0.70
     Davidson diagonalization with overlap
     ethr =  4.65E-07,  avg # of iterations =  3.9

     negative rho (up, down):  9.854E-06 0.000E+00

     total cpu time spent up to now is      611.0 secs

     total energy              =    -109.26346616 Ry
     estimated scf accuracy    <       0.00000212 Ry

     iteration #  7     ecut=    80.00 Ry     beta= 0.70
     Davidson diagonalization with overlap
     ethr =  6.63E-09,  avg # of iterations =  4.8

     negative rho (up, down):  9.884E-06 0.000E+00

     total cpu time spent up to now is      721.3 secs

     total energy              =    -109.26346955 Ry
     estimated scf accuracy    <       0.00000084 Ry

     iteration #  8     ecut=    80.00 Ry     beta= 0.70
     Davidson diagonalization with overlap
     ethr =  2.63E-09,  avg # of iterations =  2.0

     negative rho (up, down):  9.910E-06 0.000E+00

     total cpu time spent up to now is      788.9 secs

     total energy              =    -109.26346966 Ry
     estimated scf accuracy    <       0.00000013 Ry

     iteration #  9     ecut=    80.00 Ry     beta= 0.70
     Davidson diagonalization with overlap
     ethr =  4.02E-10,  avg # of iterations =  2.7

     negative rho (up, down):  9.906E-06 0.000E+00

     total cpu time spent up to now is      867.8 secs

     total energy              =    -109.26346971 Ry
     estimated scf accuracy    <       0.00000002 Ry

     iteration # 10     ecut=    80.00 Ry     beta= 0.70
     Davidson diagonalization with overlap
     ethr =  6.17E-11,  avg # of iterations =  3.4

     negative rho (up, down):  9.901E-06 0.000E+00

     total cpu time spent up to now is      943.0 secs

     total energy              =    -109.26346971 Ry
     estimated scf accuracy    <       0.00000001 Ry

     iteration # 11     ecut=    80.00 Ry     beta= 0.70
     Davidson diagonalization with overlap
     ethr =  3.18E-11,  avg # of iterations =  1.7

     negative rho (up, down):  9.899E-06 0.000E+00

     total cpu time spent up to now is     1007.8 secs

     End of self-consistent calculation

          k = 0.0000 0.0000 0.0000 ( 18655 PWs)   bands (ev):

   -21.7372 -20.0369 -16.0480 -14.6586 -12.5404 -11.7860 -10.2789  -8.6526
    -7.9437  -7.1033  -5.2438  -4.9439  -4.2316  -3.5833  -2.9615  -0.7580
    -0.1077   1.3841   2.1590   4.2720   4.4242   4.5642   4.9406   6.1949
     7.4451   7.4882   8.0929   8.3968   8.6659   9.0229

          k = 0.0000 0.1016 0.0000 ( 18669 PWs)   bands (ev):

   -21.6986 -20.1091 -16.0168 -14.7185 -12.3912 -11.7533 -10.3354  -8.5248
    -7.8889  -7.3055  -5.3822  -4.8629  -4.3942  -3.5277  -3.0050  -0.9115
     0.0379   1.3948   2.2428   4.3388   4.6436   4.6709   5.0100   6.1706
     6.7982   7.6701   7.9748   8.2642   8.4936   8.9558

          k = 0.0000 0.2031 0.0000 ( 18653 PWs)   bands (ev):

   -21.5847 -20.3052 -15.9247 -14.8804 -11.9726 -11.6573 -10.4831  -8.1622
    -7.8569  -7.7260  -5.7380  -4.8411  -4.6404  -3.3625  -3.1353  -1.2987
     0.3977   1.4162   2.4857   4.5387   4.9647   5.1866   5.2207   5.7851
     6.0982   7.4327   7.9339   8.3146   8.5142   8.7260

          k = 0.0000 0.3047 0.0000 ( 18647 PWs)   bands (ev):

   -21.4012 -20.5772 -15.7759 -15.1041 -11.5054 -11.3894 -10.6369  -8.6340
    -7.6147  -7.4606  -6.1980  -5.4787  -4.3255  -3.3497  -3.0924  -1.7876
     0.8133   1.4166   2.8740   4.8610   4.8707   5.4019   5.4078   5.9805
     5.9995   6.6280   7.4120   8.1919   8.2857   8.8675

          k = 0.0000 0.4062 0.0000 ( 18627 PWs)   bands (ev):

   -21.1587 -20.8749 -15.5790 -15.3478 -11.3141 -11.1422 -10.3251  -9.5049
    -7.1029  -6.9422  -6.6714  -6.2071  -3.9747  -3.6372  -2.7266  -2.2818
     1.1493   1.3452   3.4006   4.0637   5.3328   5.6270   5.8214   5.9211
     5.9613   6.6379   6.8424   7.6365   8.3217   8.5621

          k = 0.1111 0.0000 0.0000 ( 18645 PWs)   bands (ev):

   -21.7211 -20.0203 -16.1826 -14.7652 -12.5156 -11.5241 -10.1168  -8.7654
    -7.8911  -7.0733  -5.2275  -4.8046  -4.2906  -3.7878  -3.2974  -0.8053
    -0.0535   1.6552   2.2396   4.2340   4.3786   4.6340   5.2378   5.2913
     7.4091   7.6216   7.9721   8.1698   8.4914   9.1766

          k = 0.1111 0.1016 0.0000 ( 18639 PWs)   bands (ev):

   -21.6825 -20.0925 -16.1509 -14.8265 -12.3657 -11.4932 -10.1684  -8.6351
    -7.8366  -7.2756  -5.3619  -4.7398  -4.4548  -3.7317  -3.3273  -1.0083
     0.1418   1.6648   2.3234   4.4440   4.4515   4.7383   5.2940   5.3041
     6.9461   7.5542   7.7771   8.3577   8.4647   8.7214

          k = 0.1111 0.2031 0.0000 ( 18645 PWs)   bands (ev):

   -21.5685 -20.2886 -16.0571 -14.9923 -11.9440 -11.4028 -10.3048  -8.2661
    -7.8274  -7.6747  -5.7095  -4.9060  -4.5622  -3.5649  -3.4188  -1.4462
     0.5560   1.6826   2.5665   4.6398   5.0213   5.0224   5.3395   5.4198
     5.8934   7.5235   7.8310   8.3340   8.3643   8.3728

          k = 0.1111 0.3047 0.0000 ( 18634 PWs)   bands (ev):

   -21.3849 -20.5607 -15.9058 -15.2209 -11.3402 -11.2606 -10.4603  -8.6043
    -7.7105  -7.4111  -6.1615  -5.5499  -4.3134  -3.5728  -3.2917  -1.9607
     1.0073   1.6749   2.9554   4.9455   4.9653   5.3853   5.4112   5.5836
     5.7825   6.7302   7.5086   7.9910   8.2017   8.8862

          k = 0.1111 0.4062 0.0000 ( 18629 PWs)   bands (ev):

   -21.1424 -20.8585 -15.7052 -15.4695 -11.0856 -10.9593 -10.2633  -9.4722
    -7.0563  -7.0294  -6.6290  -6.2859  -4.0409  -3.7850  -2.9211  -2.4684
     1.3714   1.5891   3.4831   4.1478   5.4182   5.4681   5.4944   5.9834
     6.0551   6.6545   6.7205   7.4022   8.6295   8.8461

          k = 0.2222 0.0000 0.0000 ( 18597 PWs)   bands (ev):

   -21.6791 -19.9770 -16.4841 -15.0134 -12.4490 -10.8487  -9.7204  -9.0305
    -7.7431  -6.9920  -5.1849  -4.4723  -4.4440  -4.2664  -4.1428  -0.9246
     0.0983   2.3210   2.4883   3.7751   4.0356   4.6934   4.8627   5.8099
     6.4799   7.5691   7.5752   8.3803   8.3874   8.7574

          k = 0.2222 0.1016 0.0000 ( 18635 PWs)   bands (ev):

   -21.6405 -20.0493 -16.4514 -15.0776 -12.2978 -10.8231  -9.7590  -8.8949
    -7.6896  -7.1949  -5.3088  -4.6149  -4.4531  -4.2087  -4.1420  -1.2165
     0.3855   2.3285   2.5721   3.9858   4.1040   4.7540   4.9674   5.8710
     6.5237   7.2079   7.5772   7.7761   8.6282   8.8263

          k = 0.2222 0.2031 0.0000 ( 18632 PWs)   bands (ev):

   -21.5264 -20.2454 -16.3547 -15.2509 -11.8706 -10.7487  -9.8618  -8.5138
    -7.7475  -7.5309  -5.6334  -5.0776  -4.4021  -4.1502  -4.0366  -1.7624
     0.9201   2.3378   2.8151   4.3038   4.5401   4.9359   5.2467   5.9409
     6.1398   6.6874   7.5398   7.7854   8.3872   8.6518

          k = 0.2222 0.3047 0.0000 ( 18612 PWs)   bands (ev):

   -21.3426 -20.5177 -16.1984 -15.4890 -11.2389 -10.6355  -9.9931  -8.5229
    -7.9431  -7.2728  -6.0625  -5.7348  -4.3347  -4.1729  -3.7541  -2.3440
     1.4653   2.3100   3.2039   4.6162   5.2017   5.2387   5.2764   5.5685
     5.9110   6.9972   7.0326   7.3342   7.7512   8.8455

          k = 0.2222 0.4062 0.0000 ( 18591 PWs)   bands (ev):

   -21.0999 -20.8158 -15.9911 -15.7471 -10.5969 -10.5132 -10.0040  -9.3758
    -7.2456  -6.9266  -6.5121  -6.4859  -4.2676  -4.2120  -3.3682  -2.8912
     1.9071   2.1852   3.7318   4.3969   5.0055   5.3952   5.6536   5.9364
     6.3087   6.4412   6.8666   6.9637   7.5341   8.1526

          k = 0.3333 0.0000 0.0000 ( 18632 PWs)   bands (ev):

   -21.6292 -19.9254 -16.7809 -15.2683 -12.3658  -9.9760  -9.3088  -9.2816
    -7.5378  -6.8882  -5.1877  -5.1345  -4.7844  -4.6258  -4.1173  -1.0594
     0.3069   2.9103   3.0248   3.1177   3.2649   5.1005   5.1469   5.3464
     6.5852   6.7414   7.7028   8.0005   8.5873   8.6424

          k = 0.3333 0.1016 0.0000 ( 18634 PWs)   bands (ev):

   -21.5905 -19.9977 -16.7475 -15.3349 -12.2136  -9.9596  -9.3078  -9.1639
    -7.4860  -7.0917  -5.2449  -5.1790  -4.7808  -4.7242  -4.1637  -1.4225
     0.6767   2.9943   3.1243   3.1590   3.4587   5.1992   5.2036   5.4398
     6.6449   6.7565   7.6089   7.8241   8.0708   8.5380

          k = 0.3333 0.2031 0.0000 ( 18641 PWs)   bands (ev):

   -21.4763 -20.1940 -16.6485 -15.5142 -11.7820  -9.9141  -9.3573  -8.7782
    -7.6445  -7.3325  -5.5388  -5.3422  -5.0164  -4.5445  -4.2889  -2.0724
     1.3438   3.1276   3.2374   3.5404   3.9776   5.3546   5.4791   5.6968
     6.5529   6.6414   6.7696   8.0332   8.4191   8.5402

          k = 0.3333 0.3047 0.0000 ( 18624 PWs)   bands (ev):

   -21.2923 -20.4665 -16.4885 -15.7599 -11.1347  -9.8546  -9.4275  -8.4130
    -8.1984  -7.0837  -5.9670  -5.9351  -4.9494  -4.4603  -4.2479  -2.7308
     2.0068   3.0786   3.6254   4.1139   4.6789   5.5995   5.6212   5.8822
     5.9608   6.4307   6.6769   7.4148   7.8085   8.2013

          k = 0.3333 0.4062 0.0000 ( 18592 PWs)   bands (ev):

   -21.0492 -20.7648 -16.2760 -16.0255 -10.3725  -9.8613  -9.4767  -9.1999
    -7.4905  -6.7518  -6.7216  -6.3575  -4.8129  -4.6436  -3.8399  -3.3292
     2.5493   2.9058   4.1504   4.7417   4.8866   5.3902   5.5225   5.7894
     6.4115   6.4888   6.7748   6.7794   7.0561   7.4201

          k = 0.4444 0.0000 0.0000 ( 18620 PWs)   bands (ev):

   -21.5951 -19.8902 -16.9568 -15.4233 -12.3063  -9.4821  -9.2224  -8.9969
    -7.3679  -6.8116  -6.0426  -5.1335  -5.1003  -4.7527  -3.8934  -1.1473
     0.4770   2.4584   2.9183   3.4990   3.7779   4.2747   5.3098   5.7863
     6.4042   6.5111   7.7008   7.7778   7.9255   8.6340

          k = 0.4444 0.1016 0.0000 ( 18620 PWs)   bands (ev):

   -21.5564 -19.9625 -16.9230 -15.4912 -12.1534  -9.3444  -9.2199  -8.9997
    -7.3179  -7.0147  -6.0066  -5.2010  -5.0710  -4.9150  -3.9946  -1.5483
     0.9041   2.6446   3.0880   3.5842   3.7839   4.3607   5.3539   5.9038
     6.5127   6.5364   7.7297   7.8397   7.9191   8.0893

          k = 0.4444 0.2031 0.0000 ( 18617 PWs)   bands (ev):

   -21.4421 -20.1589 -16.8229 -15.6736 -11.7194  -9.2167  -9.0184  -8.9446
    -7.5643  -7.1701  -5.9272  -5.4713  -5.3330  -4.8840  -4.2608  -2.2611
     1.6808   3.1611   3.5520   3.7830   3.8291   4.6070   5.4666   6.1983
     6.6063   6.7541   7.1097   7.6058   7.6416   7.8478

          k = 0.4444 0.3047 0.0000 ( 18643 PWs)   bands (ev):

   -21.2579 -20.4315 -16.6611 -15.9231 -11.0653  -9.2387  -9.0215  -8.3681
    -8.3126  -6.9310  -6.1809  -5.8405  -5.5378  -4.6130  -4.5748  -2.9718
     2.4511   3.7182   3.9138   4.1968   4.2172   4.9955   5.5545   6.1971
     6.3858   6.7080   6.8445   6.9586   7.5132   7.6082

          k = 0.4444 0.4062 0.0000 ( 18616 PWs)   bands (ev):

   -21.0147 -20.7301 -16.4461 -16.1923 -10.2734  -9.5079  -9.0199  -8.9137
    -7.6582  -6.8935  -6.6134  -6.2386  -5.3085  -4.9795  -4.1474  -3.6090
     3.0837   3.5068   4.7390   4.7949   4.8722   5.3878   5.4123   5.5061
     5.7352   6.1783   6.9099   7.2872   7.3410   7.6503

          k =-0.1111 0.1016 0.0000 ( 18639 PWs)   bands (ev):

   -21.6825 -20.0925 -16.1509 -14.8265 -12.3657 -11.4932 -10.1684  -8.6351
    -7.8366  -7.2756  -5.3619  -4.7398  -4.4548  -3.7317  -3.3273  -1.0083
     0.1418   1.6648   2.3234   4.4440   4.4515   4.7383   5.2940   5.3041
     6.9461   7.5542   7.7771   8.3577   8.4647   8.7214

          k =-0.1111 0.2031 0.0000 ( 18645 PWs)   bands (ev):

   -21.5685 -20.2886 -16.0571 -14.9923 -11.9440 -11.4028 -10.3048  -8.2661
    -7.8274  -7.6747  -5.7095  -4.9060  -4.5622  -3.5649  -3.4188  -1.4462
     0.5560   1.6826   2.5665   4.6398   5.0213   5.0224   5.3395   5.4198
     5.8934   7.5235   7.8310   8.3340   8.3643   8.3728

          k =-0.1111 0.3047 0.0000 ( 18634 PWs)   bands (ev):

   -21.3849 -20.5607 -15.9058 -15.2209 -11.3402 -11.2606 -10.4603  -8.6043
    -7.7105  -7.4111  -6.1615  -5.5499  -4.3134  -3.5728  -3.2917  -1.9607
     1.0073   1.6749   2.9554   4.9455   4.9653   5.3853   5.4112   5.5836
     5.7825   6.7303   7.5086   7.9910   8.2017   8.8862

          k =-0.1111 0.4062 0.0000 ( 18629 PWs)   bands (ev):

   -21.1424 -20.8585 -15.7052 -15.4695 -11.0856 -10.9593 -10.2633  -9.4722
    -7.0563  -7.0294  -6.6290  -6.2859  -4.0409  -3.7850  -2.9211  -2.4684
     1.3714   1.5891   3.4831   4.1478   5.4182   5.4681   5.4944   5.9834
     6.0551   6.6545   6.7205   7.4022   8.6294   8.8459

          k =-0.2222 0.1016 0.0000 ( 18635 PWs)   bands (ev):

   -21.6405 -20.0493 -16.4514 -15.0776 -12.2978 -10.8231  -9.7590  -8.8949
    -7.6896  -7.1949  -5.3088  -4.6149  -4.4531  -4.2087  -4.1420  -1.2165
     0.3855   2.3285   2.5721   3.9858   4.1040   4.7540   4.9674   5.8710
     6.5237   7.2079   7.5772   7.7761   8.6282   8.8263

          k =-0.2222 0.2031 0.0000 ( 18632 PWs)   bands (ev):

   -21.5264 -20.2454 -16.3547 -15.2509 -11.8706 -10.7487  -9.8618  -8.5138
    -7.7475  -7.5309  -5.6334  -5.0776  -4.4021  -4.1502  -4.0366  -1.7624
     0.9201   2.3378   2.8151   4.3038   4.5401   4.9359   5.2467   5.9409
     6.1398   6.6874   7.5398   7.7854   8.3873   8.6520

          k =-0.2222 0.3047 0.0000 ( 18612 PWs)   bands (ev):

   -21.3426 -20.5177 -16.1984 -15.4890 -11.2389 -10.6355  -9.9931  -8.5229
    -7.9431  -7.2728  -6.0625  -5.7348  -4.3347  -4.1729  -3.7541  -2.3440
     1.4653   2.3100   3.2039   4.6162   5.2017   5.2387   5.2764   5.5685
     5.9110   6.9972   7.0326   7.3342   7.7512   8.8454

          k =-0.2222 0.4062 0.0000 ( 18591 PWs)   bands (ev):

   -21.0999 -20.8158 -15.9911 -15.7471 -10.5969 -10.5132 -10.0040  -9.3758
    -7.2456  -6.9266  -6.5121  -6.4859  -4.2676  -4.2120  -3.3682  -2.8912
     1.9071   2.1852   3.7318   4.3969   5.0055   5.3952   5.6536   5.9364
     6.3087   6.4412   6.8666   6.9637   7.5341   8.1526

          k =-0.3333 0.1016 0.0000 ( 18634 PWs)   bands (ev):

   -21.5905 -19.9977 -16.7475 -15.3349 -12.2136  -9.9596  -9.3078  -9.1639
    -7.4860  -7.0917  -5.2449  -5.1790  -4.7808  -4.7242  -4.1637  -1.4225
     0.6767   2.9943   3.1243   3.1590   3.4587   5.1992   5.2036   5.4398
     6.6449   6.7565   7.6089   7.8240   8.0708   8.5380

          k =-0.3333 0.2031 0.0000 ( 18641 PWs)   bands (ev):

   -21.4763 -20.1940 -16.6485 -15.5142 -11.7820  -9.9141  -9.3573  -8.7782
    -7.6445  -7.3325  -5.5388  -5.3422  -5.0164  -4.5445  -4.2889  -2.0724
     1.3438   3.1276   3.2374   3.5404   3.9776   5.3546   5.4791   5.6968
     6.5529   6.6414   6.7696   8.0331   8.4191   8.5403

          k =-0.3333 0.3047 0.0000 ( 18624 PWs)   bands (ev):

   -21.2923 -20.4665 -16.4885 -15.7599 -11.1347  -9.8546  -9.4275  -8.4130
    -8.1984  -7.0837  -5.9670  -5.9351  -4.9494  -4.4603  -4.2479  -2.7308
     2.0068   3.0786   3.6254   4.1139   4.6789   5.5995   5.6212   5.8822
     5.9608   6.4307   6.6769   7.4148   7.8085   8.2013

          k =-0.3333 0.4062 0.0000 ( 18592 PWs)   bands (ev):

   -21.0492 -20.7648 -16.2760 -16.0255 -10.3725  -9.8613  -9.4767  -9.1999
    -7.4905  -6.7518  -6.7216  -6.3575  -4.8129  -4.6436  -3.8399  -3.3292
     2.5493   2.9058   4.1504   4.7417   4.8866   5.3902   5.5225   5.7894
     6.4115   6.4888   6.7748   6.7794   7.0561   7.4201

          k =-0.4444 0.1016 0.0000 ( 18620 PWs)   bands (ev):

   -21.5564 -19.9625 -16.9230 -15.4912 -12.1534  -9.3444  -9.2199  -8.9997
    -7.3179  -7.0147  -6.0066  -5.2010  -5.0710  -4.9150  -3.9946  -1.5483
     0.9041   2.6446   3.0880   3.5842   3.7839   4.3607   5.3539   5.9038
     6.5127   6.5364   7.7297   7.8397   7.9192   8.0893

          k =-0.4444 0.2031 0.0000 ( 18617 PWs)   bands (ev):

   -21.4421 -20.1589 -16.8229 -15.6736 -11.7194  -9.2167  -9.0184  -8.9446
    -7.5643  -7.1701  -5.9272  -5.4713  -5.3330  -4.8840  -4.2608  -2.2611
     1.6808   3.1611   3.5520   3.7830   3.8291   4.6070   5.4666   6.1983
     6.6063   6.7541   7.1097   7.6058   7.6416   7.8478

          k =-0.4444 0.3047 0.0000 ( 18643 PWs)   bands (ev):

   -21.2579 -20.4315 -16.6611 -15.9231 -11.0653  -9.2387  -9.0215  -8.3681
    -8.3126  -6.9310  -6.1809  -5.8405  -5.5378  -4.6130  -4.5748  -2.9718
     2.4511   3.7182   3.9138   4.1968   4.2172   4.9955   5.5545   6.1971
     6.3858   6.7080   6.8445   6.9586   7.5132   7.6082

          k =-0.4444 0.4062 0.0000 ( 18616 PWs)   bands (ev):

   -21.0147 -20.7301 -16.4461 -16.1923 -10.2734  -9.5079  -9.0199  -8.9137
    -7.6582  -6.8935  -6.6134  -6.2386  -5.3085  -4.9795  -4.1474  -3.6090
     3.0837   3.5068   4.7390   4.7949   4.8722   5.3878   5.4123   5.5061
     5.7352   6.1783   6.9099   7.2872   7.3410   7.6502

     highest occupied, lowest unoccupied level (ev):    -0.7580   -0.1077

!    total energy              =    -109.26346971 Ry
     estimated scf accuracy    <          1.7E-09 Ry

     The total energy is the sum of the following terms:
     one-electron contribution =    -351.78777242 Ry
     hartree contribution      =     183.88952347 Ry
     xc contribution           =     -36.80808341 Ry
     ewald contribution        =      95.44286265 Ry

     convergence has been achieved in  11 iterations

     Writing all to output data dir ./outdir/b2n2.save/

     init_run     :     26.12s CPU     27.01s WALL (       1 calls)
     electrons    :    977.54s CPU    980.68s WALL (       1 calls)

     Called by init_run:
     wfcinit      :     24.47s CPU     25.24s WALL (       1 calls)
     potinit      :      0.41s CPU      0.45s WALL (       1 calls)
     hinit0       :      0.94s CPU      0.97s WALL (       1 calls)

     Called by electrons:
     c_bands      :    891.79s CPU    893.84s WALL (      11 calls)
     sum_band     :     82.69s CPU     83.30s WALL (      11 calls)
     v_of_rho     :      1.49s CPU      1.54s WALL (      12 calls)
     newd         :      1.44s CPU      1.94s WALL (      12 calls)
     mix_rho      :      0.32s CPU      0.33s WALL (      11 calls)

     Called by c_bands:
     init_us_2    :      5.69s CPU      5.73s WALL (     943 calls)
     init_us_2:cp :      5.69s CPU      5.72s WALL (     943 calls)
     cegterg      :    879.94s CPU    881.94s WALL (     451 calls)

     Called by *egterg:
     cdiaghg      :      3.71s CPU      3.73s WALL (    2464 calls)
     h_psi        :    430.49s CPU    432.13s WALL (    2505 calls)
     s_psi        :    105.61s CPU    105.88s WALL (    2505 calls)
     g_psi        :      1.79s CPU      1.80s WALL (    2013 calls)

     Called by h_psi:
     h_psi:calbec :    103.27s CPU    103.52s WALL (    2505 calls)
     vloc_psi     :    220.21s CPU    220.99s WALL (    2505 calls)
     add_vuspsi   :    105.03s CPU    105.29s WALL (    2505 calls)

     General routines
     calbec       :    139.67s CPU    139.95s WALL (    2956 calls)
     fft          :      0.91s CPU      0.92s WALL (     132 calls)
     ffts         :      0.05s CPU      0.05s WALL (      11 calls)
     fftw         :    210.58s CPU    211.27s WALL (   90530 calls)

     Parallel routines

     PWSCF        :  16m43.76s CPU  16m47.87s WALL


   This run was terminated on:   1: 2:50  28May2023            

=------------------------------------------------------------------------------=
   JOB DONE.
=------------------------------------------------------------------------------=
