
     Program PWSCF v.7.2 starts on  1Jun2023 at  0:18:58 

     This program is part of the open-source Quantum ESPRESSO suite
     for quantum simulation of materials; please cite
         "P. Giannozzi et al., J. Phys.:Condens. Matter 21 395502 (2009);
         "P. Giannozzi et al., J. Phys.:Condens. Matter 29 465901 (2017);
         "P. Giannozzi et al., J. Chem. Phys. 152 154105 (2020);
          URL http://www.quantum-espresso.org", 
     in publications or presentations arising from this work. More details at
     http://www.quantum-espresso.org/quote

     Parallel version (MPI), running on     1 processors

     MPI processes distributed on     1 nodes
     605 MiB available memory on the printing compute node when the environment starts

     Reading input from 1.si.scf.in

     Current dimensions of program PWSCF are:
     Max number of different atomic species (ntypx) = 10
     Max number of k-points (npk) =  40000
     Max angular momentum in pseudopotentials (lmaxx) =  4
     file Si.rel-pbe-n-kjpaw_psl.1.0.0.UPF: wavefunction(s)  3S 3P 3P renormalized
     Message from routine set_cutoff:
     ecutrho < 4*ecutwfc, are you sure?

     Subspace diagonalization in iterative solution of the eigenvalue problem:
     a serial algorithm will be used


     G-vector sticks info
     --------------------
     sticks:   dense  smooth     PW     G-vecs:    dense   smooth      PW
     Sum         637     637    199                10417    10417    1917

     Using Slab Decomposition



     bravais-lattice index     =            2
     lattice parameter (alat)  =      10.2076  a.u.
     unit-cell volume          =     265.8955 (a.u.)^3
     number of atoms/cell      =            2
     number of atomic types    =            1
     number of electrons       =         8.00
     number of Kohn-Sham states=           30
     kinetic-energy cutoff     =      45.0000  Ry
     charge density cutoff     =     175.0000  Ry
     scf convergence threshold =      1.0E-08
     mixing beta               =       0.7000
     number of iterations used =            8  plain     mixing
     Exchange-correlation= SLA  PW   PBX  PBC
                           (   1   4   3   4   0   0   0)
     Non magnetic calculation with spin-orbit


     celldm(1)=  10.207600  celldm(2)=   0.000000  celldm(3)=   0.000000
     celldm(4)=   0.000000  celldm(5)=   0.000000  celldm(6)=   0.000000

     crystal axes: (cart. coord. in units of alat)
               a(1) = (  -0.500000   0.000000   0.500000 )  
               a(2) = (   0.000000   0.500000   0.500000 )  
               a(3) = (  -0.500000   0.500000   0.000000 )  

     reciprocal axes: (cart. coord. in units 2 pi/alat)
               b(1) = ( -1.000000 -1.000000  1.000000 )  
               b(2) = (  1.000000  1.000000  1.000000 )  
               b(3) = ( -1.000000  1.000000 -1.000000 )  


     PseudoPot. # 1 for Si read from file:
     ./Si.rel-pbe-n-kjpaw_psl.1.0.0.UPF
     MD5 check sum: d74f6caf6830ea4c2076867160cab1b0
     Pseudo is Projector augmented-wave + core cor, Zval =  4.0
     Generated using &quot;atomic&quot; code by A. Dal Corso  v.6.3
     Shape of augmentation charge: PSQ
     Using radial grid of 1141 points, 10 beta functions with: 
                l(1) =   0
                l(2) =   0
                l(3) =   1
                l(4) =   1
                l(5) =   1
                l(6) =   1
                l(7) =   2
                l(8) =   2
                l(9) =   2
               l(10) =   2
     Q(r) pseudized with 0 coefficients 


     atomic species   valence    mass     pseudopotential
        Si             4.00    28.08600     Si( 1.00)

     48 Sym. Ops., with inversion, found (24 have fractional translation)



   Cartesian axes

     site n.     atom                  positions (alat units)
         1           Si  tau(   1) = (   0.0000000   0.0000000   0.0000000  )
         2           Si  tau(   2) = (   0.2500000   0.2500000   0.2500000  )

     number of k points=    29
                       cart. coord. in units 2pi/alat
        k(    1) = (   0.0000000   0.0000000   0.0000000), wk =   0.0019531
        k(    2) = (  -0.1250000   0.1250000  -0.1250000), wk =   0.0156250
        k(    3) = (  -0.2500000   0.2500000  -0.2500000), wk =   0.0156250
        k(    4) = (  -0.3750000   0.3750000  -0.3750000), wk =   0.0156250
        k(    5) = (   0.5000000  -0.5000000   0.5000000), wk =   0.0078125
        k(    6) = (   0.0000000   0.2500000   0.0000000), wk =   0.0117188
        k(    7) = (  -0.1250000   0.3750000  -0.1250000), wk =   0.0468750
        k(    8) = (  -0.2500000   0.5000000  -0.2500000), wk =   0.0468750
        k(    9) = (   0.6250000  -0.3750000   0.6250000), wk =   0.0468750
        k(   10) = (   0.5000000  -0.2500000   0.5000000), wk =   0.0468750
        k(   11) = (   0.3750000  -0.1250000   0.3750000), wk =   0.0468750
        k(   12) = (   0.2500000   0.0000000   0.2500000), wk =   0.0234375
        k(   13) = (   0.0000000   0.5000000   0.0000000), wk =   0.0117188
        k(   14) = (  -0.1250000   0.6250000  -0.1250000), wk =   0.0468750
        k(   15) = (   0.7500000  -0.2500000   0.7500000), wk =   0.0468750
        k(   16) = (   0.6250000  -0.1250000   0.6250000), wk =   0.0468750
        k(   17) = (   0.5000000   0.0000000   0.5000000), wk =   0.0234375
        k(   18) = (   0.0000000   0.7500000   0.0000000), wk =   0.0117188
        k(   19) = (   0.8750000  -0.1250000   0.8750000), wk =   0.0468750
        k(   20) = (   0.7500000   0.0000000   0.7500000), wk =   0.0234375
        k(   21) = (   0.0000000  -1.0000000   0.0000000), wk =   0.0058594
        k(   22) = (  -0.2500000   0.5000000   0.0000000), wk =   0.0468750
        k(   23) = (   0.6250000  -0.3750000   0.8750000), wk =   0.0937500
        k(   24) = (   0.5000000  -0.2500000   0.7500000), wk =   0.0468750
        k(   25) = (   0.7500000  -0.2500000   1.0000000), wk =   0.0468750
        k(   26) = (   0.6250000  -0.1250000   0.8750000), wk =   0.0937500
        k(   27) = (   0.5000000   0.0000000   0.7500000), wk =   0.0468750
        k(   28) = (  -0.2500000  -1.0000000   0.0000000), wk =   0.0234375
        k(   29) = (  -0.5000000  -1.0000000   0.0000000), wk =   0.0117188

     Dense  grid:    10417 G-vectors     FFT dimensions: (  32,  32,  32)

     Estimated max dynamical RAM per process >     158.55 MB

     Check: negative core charge=   -0.000001

     Initial potential from superposition of free atoms

     starting charge       7.9989, renormalised to       8.0000
     Starting wfcs are   16 randomized atomic wfcs +   14 random wfcs
     Checking if some PAW data can be deallocated... 

     total cpu time spent up to now is        3.8 secs

     Self-consistent Calculation

     iteration #  1     ecut=    45.00 Ry     beta= 0.70
     Davidson diagonalization with overlap
     ethr =  1.00E-02,  avg # of iterations =  7.0

     Threshold (ethr) on eigenvalues was too large:
     Diagonalizing with lowered threshold

     Davidson diagonalization with overlap
     ethr =  7.16E-04,  avg # of iterations =  1.1

     total cpu time spent up to now is       26.9 secs

     total energy              =     -93.46114323 Ry
     estimated scf accuracy    <       0.05756995 Ry

     iteration #  2     ecut=    45.00 Ry     beta= 0.70
     Davidson diagonalization with overlap
     ethr =  7.20E-04,  avg # of iterations =  1.1

     total cpu time spent up to now is       33.6 secs

     total energy              =     -93.46367901 Ry
     estimated scf accuracy    <       0.00201693 Ry

     iteration #  3     ecut=    45.00 Ry     beta= 0.70
     Davidson diagonalization with overlap
     ethr =  2.52E-05,  avg # of iterations =  7.2

     total cpu time spent up to now is       42.7 secs

     total energy              =     -93.46372530 Ry
     estimated scf accuracy    <       0.00005160 Ry

     iteration #  4     ecut=    45.00 Ry     beta= 0.70
     Davidson diagonalization with overlap
     ethr =  6.45E-07,  avg # of iterations =  3.9

     total cpu time spent up to now is       50.9 secs

     total energy              =     -93.46372873 Ry
     estimated scf accuracy    <       0.00000016 Ry

     iteration #  5     ecut=    45.00 Ry     beta= 0.70
     Davidson diagonalization with overlap
     ethr =  1.94E-09,  avg # of iterations =  2.9

     total cpu time spent up to now is       59.3 secs

     End of self-consistent calculation

          k = 0.0000 0.0000 0.0000 (  1363 PWs)   bands (ev):

    -5.7011  -5.7011   6.3422   6.3422   6.3906   6.3906   6.3906   6.3906
     8.9193   8.9193   8.9543   8.9543   8.9543   8.9543   9.9204   9.9204
    14.1070  14.1070  14.1070  14.1070  14.4023  14.4023  17.6801  17.6801
    17.6908  17.6908  17.6908  17.6908  21.8851  21.8851

          k =-0.1250 0.1250-0.1250 (  1366 PWs)   bands (ev):

    -5.4942  -5.4942   4.7683   4.7683   6.0646   6.0646   6.0963   6.0963
     8.9190   8.9190   9.3623   9.3623   9.3861   9.3861  11.2298  11.2298
    13.6194  13.6194  13.6198  13.6198  15.1965  15.1965  17.1243  17.1243
    18.8595  18.8595  18.8660  18.8660  23.1290  23.1290

          k =-0.2500 0.2500-0.2500 (  1363 PWs)   bands (ev):

    -4.8900  -4.8900   2.4147   2.4147   5.5878   5.5878   5.6194   5.6194
     8.4563   8.4563   9.8816   9.8816   9.9030   9.9030  13.4259  13.4259
    13.5801  13.5801  13.5831  13.5831  15.4289  15.4289  18.3238  18.3238
    21.1078  21.1078  21.1145  21.1145  24.3742  24.3764

          k =-0.3750 0.3750-0.3750 (  1362 PWs)   bands (ev):

    -3.9815  -3.9815   0.3670   0.3670   5.2574   5.2574   5.2894   5.2894
     8.0943   8.0943   9.8154   9.8154   9.8315   9.8315  14.2963  14.2963
    14.9906  14.9906  14.9979  14.9979  16.2071  16.2071  20.2275  20.2275
    20.2401  20.2401  20.6515  20.6515  23.1993  23.1993

          k = 0.5000-0.5000 0.5000 (  1380 PWs)   bands (ev):

    -3.3291  -3.3291  -0.6745  -0.6745   5.1446   5.1446   5.1767   5.1767
     7.9666   7.9666   9.6994   9.6994   9.7137   9.7137  14.1289  14.1289
    16.9682  16.9682  16.9685  16.9685  17.8015  17.8015  17.8275  17.8275
    17.8734  17.8735  19.6109  19.6109  25.9050  25.9050

          k = 0.0000 0.2500 0.0000 (  1355 PWs)   bands (ev):

    -5.4244  -5.4244   5.0534   5.0534   5.5437   5.5437   5.5609   5.5609
     8.3835   8.3835  10.0992  10.0992  10.1071  10.1071  10.9070  10.9070
    12.9089  12.9089  14.4133  14.4133  15.5016  15.5016  18.1603  18.1603
    18.1667  18.1667  18.6559  18.6559  23.7202  23.7202

          k =-0.1250 0.3750-0.1250 (  1352 PWs)   bands (ev):

    -4.9492  -4.9492   3.1347   3.1347   5.0317   5.0317   5.1207   5.1207
     8.5250   8.5250  10.1459  10.1459  10.8742  10.8742  11.1345  11.1345
    13.9993  13.9993  14.5848  14.5848  16.4809  16.4809  18.0483  18.0483
    19.5937  19.5937  20.8728  20.8728  24.1117  24.1118

          k =-0.2500 0.5000-0.2500 (  1354 PWs)   bands (ev):

    -4.1217  -4.1217   1.0443   1.0443   4.5207   4.5207   4.7633   4.7633
     8.6350   8.6350  10.0552  10.0552  10.8564  10.8564  11.8662  11.8662
    15.7389  15.7389  15.7851  15.7851  16.4662  16.4662  19.8733  19.8733
    19.9846  19.9846  21.6893  21.6893  23.1784  23.1785

          k = 0.6250-0.3750 0.6250 (  1360 PWs)   bands (ev):

    -3.2428  -3.2428  -0.4448  -0.4448   4.0686   4.0686   4.7895   4.7895
     8.5900   8.5900   9.9122   9.9122  10.4803  10.4803  13.7973  13.7973
    15.4169  15.4169  16.9101  16.9101  18.0325  18.0325  18.1213  18.1213
    19.0711  19.0711  21.5886  21.5886  24.8499  24.8500

          k = 0.5000-0.2500 0.5000 (  1363 PWs)   bands (ev):

    -3.4930  -3.4930  -0.0668  -0.0668   3.8818   3.8818   5.0916   5.0916
     8.7702   8.7702  10.0123  10.0123  10.2462  10.2462  14.3610  14.3610
    14.5044  14.5044  15.6508  15.6508  17.6556  17.6556  18.9542  18.9542
    20.7480  20.7480  21.2798  21.2798  23.3983  23.3983

          k = 0.3750-0.1250 0.3750 (  1353 PWs)   bands (ev):

    -4.4328  -4.4328   1.7136   1.7136   4.0300   4.0300   5.5913   5.5913
     9.1414   9.1414  10.0634  10.0634  10.2485  10.2485  12.7425  12.7425
    12.8506  12.8506  16.2966  16.2966  16.5541  16.5541  18.9157  18.9157
    20.4628  20.4628  21.9403  21.9404  22.8711  22.8712

          k = 0.2500 0.0000 0.2500 (  1365 PWs)   bands (ev):

    -5.1533  -5.1533   3.6820   3.6820   4.7156   4.7156   6.0797   6.0797
     9.4696   9.4696   9.5122   9.5122   9.7575   9.7575  12.0175  12.0175
    12.7114  12.7114  14.4667  14.4667  16.2246  16.2246  17.6180  17.6180
    18.8149  18.8149  20.9477  20.9477  24.2378  24.2378

          k = 0.0000 0.5000 0.0000 (  1355 PWs)   bands (ev):

    -4.6042  -4.6042   2.8574   2.8574   4.4487   4.4487   4.4573   4.4573
     7.4887   7.4887   9.5043   9.5043  12.1827  12.1827  12.1854  12.1854
    14.5960  14.5960  15.3303  15.3303  17.9213  17.9213  19.4602  19.4603
    19.4653  19.4653  20.1795  20.1795  23.9422  23.9494

          k =-0.1250 0.6250-0.1250 (  1355 PWs)   bands (ev):

    -3.8839  -3.8839   1.4128   1.4128   3.6611   3.6611   4.1311   4.1311
     7.7100   7.7100   9.2624   9.2624  12.4422  12.4422  12.6911  12.6911
    16.4013  16.4013  16.7259  16.7259  18.1318  18.1318  19.6745  19.6745
    20.2538  20.2539  21.3240  21.3240  22.3856  22.3857

          k = 0.7500-0.2500 0.7500 (  1359 PWs)   bands (ev):

    -2.9415  -2.9415  -0.0554  -0.0554   2.7857   2.7857   4.1352   4.1352
     7.8776   7.8776  10.8355  10.8355  12.1983  12.1983  12.3264  12.3264
    16.6833  16.6833  16.9743  16.9743  18.6204  18.6204  19.2183  19.2183
    19.5596  19.5596  23.3563  23.3563  24.2213  24.2215

          k = 0.6250-0.1250 0.6250 (  1352 PWs)   bands (ev):

    -2.7317  -2.7317  -0.3205  -0.3205   2.3186   2.3186   4.4592   4.4592
     8.2097   8.2097  11.8815  11.8815  11.8903  11.8903  13.3963  13.3963
    14.3874  14.3874  14.4913  14.4913  19.0379  19.0379  21.3062  21.3062
    21.7043  21.7043  22.5409  22.5410  22.9785  22.9786

          k = 0.5000 0.0000 0.5000 (  1360 PWs)   bands (ev):

    -3.6269  -3.6269   0.8614   0.8614   2.5580   2.5580   5.0274   5.0274
     8.8329   8.8329  11.1958  11.1958  11.5468  11.5468  12.6061  12.6061
    12.8203  12.8203  16.1017  16.1017  19.0911  19.0911  19.7063  19.7063
    19.9384  19.9384  23.1811  23.1811  23.5244  23.5245

          k = 0.0000 0.7500 0.0000 (  1359 PWs)   bands (ev):

    -3.2732  -3.2732   0.6025   0.6025   3.7251   3.7251   3.7288   3.7288
     6.9629   6.9629   7.8865   7.8865  14.4904  14.4904  14.4986  14.4986
    16.8520  16.8520  17.2926  17.2926  19.4804  19.4804  19.4847  19.4847
    20.1893  20.1893  21.6462  21.6462  22.4333  22.4334

          k = 0.8750-0.1250 0.8750 (  1350 PWs)   bands (ev):

    -2.3621  -2.3621  -0.4968  -0.4968   2.8795   2.8795   3.6501   3.6501
     7.2412   7.2412   8.3287   8.3287  14.7098  14.7098  14.8246  14.8246
    17.2447  17.2447  17.2554  17.2554  18.7647  18.7647  19.4462  19.4462
    21.4139  21.4139  21.4939  21.4939  22.4269  22.4270

          k = 0.7500 0.0000 0.7500 (  1350 PWs)   bands (ev):

    -1.9111  -1.9111  -0.9023  -0.9023   1.9950   1.9950   3.9118   3.9118
     7.5553   7.5553  10.5165  10.5165  13.9117  13.9117  14.4637  14.4637
    14.7294  14.7294  14.9104  14.9104  21.3020  21.3020  21.3498  21.3498
    21.9810  21.9810  22.1845  22.1845  22.4125  22.4125

          k = 0.0000-1.0000 0.0000 (  1362 PWs)   bands (ev):

    -1.4983  -1.4983  -1.4983  -1.4983   3.4781   3.4781   3.4781   3.4781
     7.0524   7.0524   7.0524   7.0524  16.6165  16.6165  16.6165  16.6165
    17.4054  17.4054  17.4054  17.4054  18.9659  18.9659  18.9659  18.9659
    19.6288  19.6288  19.6288  19.6288  25.3376  25.3377

          k =-0.2500 0.5000 0.0000 (  1347 PWs)   bands (ev):

    -4.3529  -4.3529   2.0674   2.0674   3.6149   3.6149   4.9261   4.9261
     8.8260   8.8260  10.3305  10.3305  10.5661  10.5661  11.9238  11.9238
    14.2253  14.2253  16.7482  16.7482  17.5622  17.5622  18.5529  18.5529
    20.3428  20.3428  21.5896  21.5896  22.3464  22.3464

          k = 0.6250-0.3750 0.8750 (  1353 PWs)   bands (ev):

    -3.4501  -3.4501   0.4901   0.4901   3.0042   3.0042   4.4136   4.4136
     9.2609   9.2609   9.9481   9.9481  11.4266  11.4266  12.3570  12.3570
    15.4674  15.4674  16.1907  16.1907  18.4569  18.4569  19.4578  19.4578
    20.7464  20.7464  21.6285  21.6285  23.7711  23.7711

          k = 0.5000-0.2500 0.7500 (  1356 PWs)   bands (ev):

    -2.7835  -2.7835  -0.4749  -0.4749   2.8773   2.8773   4.1786   4.1786
     9.4732   9.4732   9.4981   9.4981  12.3349  12.3349  13.5356  13.5356
    13.8399  13.8399  17.0161  17.0161  18.1906  18.1906  18.8847  18.8847
    22.0738  22.0738  22.1093  22.1093  24.6422  24.6423

          k = 0.7500-0.2500 1.0000 (  1353 PWs)   bands (ev):

    -3.0706  -3.0706   0.3808   0.3808   2.9556   2.9556   3.5670   3.5670
     8.3155   8.3155   9.0115   9.0115  12.1823  12.1823  14.4418  14.4418
    16.6457  16.6457  16.6852  16.6852  19.4087  19.4087  19.7937  19.7937
    20.7230  20.7230  21.1258  21.1258  23.2083  23.2083

          k = 0.6250-0.1250 0.8750 (  1358 PWs)   bands (ev):

    -2.1793  -2.1793  -0.6024  -0.6024   2.2434   2.2434   3.3626   3.3626
     8.7581   8.7581  10.6655  10.6655  11.7017  11.7017  13.8807  13.8807
    14.8541  14.8541  17.5523  17.5523  18.7244  18.7244  20.8168  20.8168
    21.8810  21.8810  22.5299  22.5299  24.0301  24.0301

          k = 0.5000 0.0000 0.7500 (  1348 PWs)   bands (ev):

    -2.5353  -2.5353  -0.2350  -0.2350   2.0731   2.0731   3.7458   3.7458
     9.2455   9.2455  10.9425  10.9425  11.6276  11.6276  13.4551  13.4551
    14.3286  14.3286  15.7032  15.7032  20.5566  20.5566  20.8094  20.8094
    21.1155  21.1155  22.8349  22.8350  23.0676  23.0676

          k =-0.2500-1.0000 0.0000 (  1358 PWs)   bands (ev):

    -1.4188  -1.4188  -1.4151  -1.4151   2.8936   2.8936   2.9037   2.9037
     8.3307   8.3307   8.3366   8.3366  14.2885  14.2885  14.2988  14.2988
    17.0370  17.0370  17.0501  17.0501  19.3738  19.3738  19.3870  19.3870
    22.1094  22.1094  22.1214  22.1215  23.8734  23.8752

          k =-0.5000-1.0000 0.0000 (  1348 PWs)   bands (ev):

    -1.3299  -1.3299  -1.3241  -1.3241   2.4452   2.4452   2.4582   2.4582
    10.6446  10.6446  10.6447  10.6447  11.4248  11.4248  11.4410  11.4410
    17.0425  17.0425  17.0591  17.0591  19.5386  19.5386  19.5587  19.5587
    22.9263  22.9264  22.9321  22.9322  25.1256  25.1283

     highest occupied, lowest unoccupied level (ev):     6.3906    6.9629

!    total energy              =     -93.46372886 Ry
     total all-electron energy =     -1160.145787 Ry
     estimated scf accuracy    <          4.7E-09 Ry

     The total energy is the sum of the following terms:
     one-electron contribution =       5.86790762 Ry
     hartree contribution      =       1.08693604 Ry
     xc contribution           =     -12.32966123 Ry
     ewald contribution        =     -16.88717601 Ry
     one-center paw contrib.   =     -71.20173528 Ry

     convergence has been achieved in   5 iterations

     Writing all to output data dir ./tmp/silicon.save/

     init_run     :      3.31s CPU      3.41s WALL (       1 calls)
     electrons    :     54.75s CPU     55.49s WALL (       1 calls)

     Called by init_run:
     wfcinit      :      2.28s CPU      2.30s WALL (       1 calls)
     potinit      :      0.36s CPU      0.38s WALL (       1 calls)
     hinit0       :      0.56s CPU      0.56s WALL (       1 calls)

     Called by electrons:
     c_bands      :     47.27s CPU     47.49s WALL (       6 calls)
     sum_band     :      5.11s CPU      5.41s WALL (       6 calls)
     v_of_rho     :      0.07s CPU      0.07s WALL (       6 calls)
     newd         :      0.68s CPU      0.95s WALL (       6 calls)
     PAW_pot      :      2.03s CPU      2.06s WALL (       6 calls)
     mix_rho      :      0.02s CPU      0.02s WALL (       6 calls)

     Called by c_bands:
     init_us_2    :      0.21s CPU      0.21s WALL (     377 calls)
     init_us_2:cp :      0.21s CPU      0.21s WALL (     377 calls)
     cegterg      :     45.11s CPU     45.31s WALL (     174 calls)

     Called by *egterg:
     cdiaghg      :      1.16s CPU      1.16s WALL (     820 calls)
     h_psi        :     22.05s CPU     22.22s WALL (     878 calls)
     s_psi        :      5.37s CPU      5.38s WALL (     878 calls)
     g_psi        :      0.10s CPU      0.10s WALL (     675 calls)

     Called by h_psi:
     h_psi:calbec :      5.05s CPU      5.08s WALL (     878 calls)
     vloc_psi     :     11.45s CPU     11.58s WALL (     878 calls)
     add_vuspsi   :      5.43s CPU      5.45s WALL (     878 calls)

     General routines
     calbec       :      6.84s CPU      6.87s WALL (    1052 calls)
     fft          :      0.15s CPU      0.15s WALL (     100 calls)
     ffts         :      0.01s CPU      0.01s WALL (      24 calls)
     fftw         :      9.61s CPU      9.72s WALL (   69592 calls)

     Parallel routines

     PWSCF        :     58.45s CPU     59.34s WALL


   This run was terminated on:   0:19:58   1Jun2023            

=------------------------------------------------------------------------------=
   JOB DONE.
=------------------------------------------------------------------------------=
