
     Program BANDS v.7.2 starts on  1Jun2023 at  0:25:34 

     This program is part of the open-source Quantum ESPRESSO suite
     for quantum simulation of materials; please cite
         "P. Giannozzi et al., J. Phys.:Condens. Matter 21 395502 (2009);
         "P. Giannozzi et al., J. Phys.:Condens. Matter 29 465901 (2017);
         "P. Giannozzi et al., J. Chem. Phys. 152 154105 (2020);
          URL http://www.quantum-espresso.org", 
     in publications or presentations arising from this work. More details at
     http://www.quantum-espresso.org/quote

     Parallel version (MPI), running on     1 processors

     MPI processes distributed on     1 nodes
     325 MiB available memory on the printing compute node when the environment starts


     Reading xml data from directory:

     ./tmp/silicon.save/
     file Si.rel-pbe-n-kjpaw_psl.1.0.0.UPF: wavefunction(s)  3S 3P 3P renormalized

     IMPORTANT: XC functional enforced from input :
     Exchange-correlation= PBE
                           (   1   4   3   4   0   0   0)
     Any further DFT definition will be discarded
     Please, verify this is what you really want


     G-vector sticks info
     --------------------
     sticks:   dense  smooth     PW     G-vecs:    dense   smooth      PW
     Sum         637     637    199                10417    10417    1807

     Using Slab Decomposition


     Check: negative core charge=   -0.000001
     Reading collected, re-writing distributed wavefunctions
     high-symmetry point:  0.5000 0.5000 0.5000   x coordinate   0.0000
     high-symmetry point:  0.0000 0.0000 0.0000   x coordinate   0.8660
     high-symmetry point:  1.0000 0.0000 0.0000   x coordinate   1.8660
     high-symmetry point:  1.0000 0.2500 0.2500   x coordinate   2.2196
     high-symmetry point:  0.0000 0.0000 0.0000   x coordinate   3.2802

     Plottable bands (eV) written to file si.bands.dat.gnu
     Bands written to file si.bands.dat

 **************************************************************************

                    xk=(   0.50000,   0.50000,   0.50000  )

     zone border point and non-symmorphic group 
     symmetry decomposition not available

 **************************************************************************

 **************************************************************************

                    xk=(   0.47500,   0.47500,   0.47500  )

     double point group C_3v (3m)  
     there are  6 classes and  3 irreducible representations
     the character table:

       E     -E    2C3   -2C3  3s_v  -3s_v
                                          
G_4    2.00 -2.00  1.00 -1.00  0.00  0.00
G_5    1.00 -1.00 -1.00  1.00  0.00  0.00
G_6    1.00 -1.00 -1.00  1.00  0.00  0.00

     imaginary part

       E     -E    2C3   -2C3  3s_v  -3s_v
                                          
G_4    0.00  0.00  0.00  0.00  0.00  0.00
G_5    0.00  0.00  0.00  0.00  1.00 -1.00
G_6    0.00  0.00  0.00  0.00 -1.00  1.00

     the symmetry operations in each class and the name of the first element:

     E             1
                                                                 
     -E           -1
                                                                 
     2C3           2    3
                                                                 
     -2C3         -2   -3
                                                                 
     3s_v          4    5   -6
                                                                 
     -3s_v         6   -4   -5
                                                                 

     Band symmetry, C_3v (3m)   double point group:

     e(  1 -  2) =     -3.36537  eV     2   --> G_4   L_6      
     e(  3 -  4) =     -0.62222  eV     2   --> G_4   L_6      
     e(  5 -  6) =      5.14932  eV     2   --> G_4   L_6      
     e(  7 -  8) =      5.18144  eV     2   --> G_5   L_4      
     e(  7 -  8) =      5.18144  eV     2   --> G_6   L_5      
     e(  9 - 10) =      7.97199  eV     2   --> G_4   L_6      
     e( 11 - 12) =      9.70492  eV     2   --> G_4   L_6      
     e( 13 - 14) =      9.71930  eV     2   --> G_5   L_4      
     e( 13 - 14) =      9.71930  eV     2   --> G_6   L_5      
     e( 15 - 16) =     14.13763  eV     2   --> G_4   L_6      
     e( 17 - 18) =     16.72041  eV     2   --> G_4   L_6      
     e( 19 - 20) =     16.72463  eV     2   --> G_5   L_4      
     e( 19 - 20) =     16.72463  eV     2   --> G_6   L_5      
     e( 21 - 22) =     17.73933  eV     2   --> G_4   L_6      
     e( 23 - 24) =     18.07343  eV     2   --> G_4   L_6      
     e( 25 - 26) =     18.09032  eV     2   --> G_5   L_4      
     e( 25 - 26) =     18.09032  eV     2   --> G_6   L_5      
     e( 27 - 28) =     19.73333  eV     2   --> G_4   L_6      
     e( 29 - 30) =     25.38943  eV     2   --> G_4   L_6      

 **************************************************************************

 **************************************************************************

                    xk=(   0.45000,   0.45000,   0.45000  )

     Band symmetry, C_3v (3m)   double point group:

     e(  1 -  2) =     -3.46672  eV     2   --> G_4   L_6      
     e(  3 -  4) =     -0.47398  eV     2   --> G_4   L_6      
     e(  5 -  6) =      5.16289  eV     2   --> G_4   L_6      
     e(  7 -  8) =      5.19498  eV     2   --> G_5   L_4      
     e(  7 -  8) =      5.19498  eV     2   --> G_6   L_5      
     e(  9 - 10) =      7.98743  eV     2   --> G_4   L_6      
     e( 11 - 12) =      9.72081  eV     2   --> G_4   L_6      
     e( 13 - 14) =      9.73539  eV     2   --> G_5   L_4      
     e( 13 - 14) =      9.73539  eV     2   --> G_6   L_5      
     e( 15 - 16) =     14.16210  eV     2   --> G_4   L_6      
     e( 17 - 18) =     16.28600  eV     2   --> G_4   L_6      
     e( 19 - 20) =     16.29261  eV     2   --> G_5   L_4      
     e( 19 - 20) =     16.29261  eV     2   --> G_6   L_5      
     e( 21 - 22) =     17.42813  eV     2   --> G_4   L_6      
     e( 23 - 24) =     18.56321  eV     2   --> G_4   L_6      
     e( 25 - 26) =     18.57806  eV     2   --> G_5   L_4      
     e( 25 - 26) =     18.57806  eV     2   --> G_6   L_5      
     e( 27 - 28) =     20.01783  eV     2   --> G_4   L_6      
     e( 29 - 30) =     24.68687  eV     2   --> G_4   L_6      

 **************************************************************************

 **************************************************************************

                    xk=(   0.42500,   0.42500,   0.42500  )

     Band symmetry, C_3v (3m)   double point group:

     e(  1 -  2) =     -3.61490  eV     2   --> G_4   L_6      
     e(  3 -  4) =     -0.24779  eV     2   --> G_4   L_6      
     e(  5 -  6) =      5.18548  eV     2   --> G_4   L_6      
     e(  7 -  8) =      5.21754  eV     2   --> G_5   L_4      
     e(  7 -  8) =      5.21754  eV     2   --> G_6   L_5      
     e(  9 - 10) =      8.01309  eV     2   --> G_4   L_6      
     e( 11 - 12) =      9.74602  eV     2   --> G_4   L_6      
     e( 13 - 14) =      9.76095  eV     2   --> G_5   L_4      
     e( 13 - 14) =      9.76095  eV     2   --> G_6   L_5      
     e( 15 - 16) =     14.20062  eV     2   --> G_4   L_6      
     e( 17 - 18) =     15.83556  eV     2   --> G_4   L_6      
     e( 19 - 20) =     15.84298  eV     2   --> G_5   L_4      
     e( 19 - 20) =     15.84298  eV     2   --> G_6   L_5      
     e( 21 - 22) =     17.03716  eV     2   --> G_4   L_6      
     e( 23 - 24) =     19.10562  eV     2   --> G_4   L_6      
     e( 25 - 26) =     19.11937  eV     2   --> G_5   L_4      
     e( 25 - 26) =     19.11937  eV     2   --> G_6   L_5      
     e( 27 - 28) =     20.34027  eV     2   --> G_4   L_6      
     e( 29 - 30) =     24.03206  eV     2   --> G_4   L_6      

 **************************************************************************

 **************************************************************************

                    xk=(   0.40000,   0.40000,   0.40000  )

     Band symmetry, C_3v (3m)   double point group:

     e(  1 -  2) =     -3.79123  eV     2   --> G_4   L_6      
     e(  3 -  4) =      0.03749  eV     2   --> G_4   L_6      
     e(  5 -  6) =      5.21708  eV     2   --> G_4   L_6      
     e(  7 -  8) =      5.24909  eV     2   --> G_5   L_4      
     e(  7 -  8) =      5.24909  eV     2   --> G_6   L_5      
     e(  9 - 10) =      8.04885  eV     2   --> G_4   L_6      
     e( 11 - 12) =      9.77859  eV     2   --> G_4   L_6      
     e( 13 - 14) =      9.79402  eV     2   --> G_5   L_4      
     e( 13 - 14) =      9.79402  eV     2   --> G_6   L_5      
     e( 15 - 16) =     14.24865  eV     2   --> G_4   L_6      
     e( 17 - 18) =     15.40021  eV     2   --> G_4   L_6      
     e( 19 - 20) =     15.40777  eV     2   --> G_5   L_4      
     e( 19 - 20) =     15.40777  eV     2   --> G_6   L_5      
     e( 21 - 22) =     16.62044  eV     2   --> G_4   L_6      
     e( 23 - 24) =     19.66633  eV     2   --> G_4   L_6      
     e( 25 - 26) =     19.67941  eV     2   --> G_5   L_4      
     e( 25 - 26) =     19.67941  eV     2   --> G_6   L_5      
     e( 27 - 28) =     20.59433  eV     2   --> G_4   L_6      
     e( 29 - 30) =     23.49891  eV     2   --> G_4   L_6      

 **************************************************************************

 **************************************************************************

                    xk=(   0.37500,   0.37500,   0.37500  )

     Band symmetry, C_3v (3m)   double point group:

     e(  1 -  2) =     -3.98136  eV     2   --> G_4   L_6      
     e(  3 -  4) =      0.36722  eV     2   --> G_4   L_6      
     e(  5 -  6) =      5.25763  eV     2   --> G_4   L_6      
     e(  7 -  8) =      5.28958  eV     2   --> G_5   L_4      
     e(  7 -  8) =      5.28958  eV     2   --> G_6   L_5      
     e(  9 - 10) =      8.09452  eV     2   --> G_4   L_6      
     e( 11 - 12) =      9.81553  eV     2   --> G_4   L_6      
     e( 13 - 14) =      9.83162  eV     2   --> G_5   L_4      
     e( 13 - 14) =      9.83162  eV     2   --> G_6   L_5      
     e( 15 - 16) =     14.29663  eV     2   --> G_4   L_6      
     e( 17 - 18) =     14.99076  eV     2   --> G_4   L_6      
     e( 19 - 20) =     14.99808  eV     2   --> G_5   L_4      
     e( 19 - 20) =     14.99808  eV     2   --> G_6   L_5      
     e( 21 - 22) =     16.20745  eV     2   --> G_4   L_6      
     e( 23 - 24) =     20.22762  eV     2   --> G_4   L_6      
     e( 25 - 26) =     20.24021  eV     2   --> G_5   L_4      
     e( 25 - 26) =     20.24021  eV     2   --> G_6   L_5      
     e( 27 - 28) =     20.65188  eV     2   --> G_4   L_6      
     e( 29 - 30) =     23.19948  eV     2   --> G_4   L_6      

 **************************************************************************

 **************************************************************************

                    xk=(   0.35000,   0.35000,   0.35000  )

     Band symmetry, C_3v (3m)   double point group:

     e(  1 -  2) =     -4.17541  eV     2   --> G_4   L_6      
     e(  3 -  4) =      0.73114  eV     2   --> G_4   L_6      
     e(  5 -  6) =      5.30702  eV     2   --> G_4   L_6      
     e(  7 -  8) =      5.33890  eV     2   --> G_5   L_4      
     e(  7 -  8) =      5.33890  eV     2   --> G_6   L_5      
     e(  9 - 10) =      8.14982  eV     2   --> G_4   L_6      
     e( 11 - 12) =      9.85272  eV     2   --> G_4   L_6      
     e( 13 - 14) =      9.86964  eV     2   --> G_5   L_4      
     e( 13 - 14) =      9.86964  eV     2   --> G_6   L_5      
     e( 15 - 16) =     14.32326  eV     2   --> G_4   L_6      
     e( 17 - 18) =     14.61435  eV     2   --> G_4   L_6      
     e( 19 - 20) =     14.62114  eV     2   --> G_5   L_4      
     e( 19 - 20) =     14.62114  eV     2   --> G_6   L_5      
     e( 21 - 22) =     15.82750  eV     2   --> G_4   L_6      
     e( 23 - 24) =     20.42287  eV     2   --> G_4   L_6      
     e( 25 - 26) =     20.76524  eV     2   --> G_4   L_6      
     e( 27 - 28) =     20.77690  eV     2   --> G_5   L_4      
     e( 27 - 28) =     20.77690  eV     2   --> G_6   L_5      
     e( 29 - 30) =     23.21546  eV     2   --> G_4   L_6      

 **************************************************************************

 **************************************************************************

                    xk=(   0.32500,   0.32500,   0.32500  )

     Band symmetry, C_3v (3m)   double point group:

     e(  1 -  2) =     -4.36692  eV     2   --> G_4   L_6      
     e(  3 -  4) =      1.12227  eV     2   --> G_4   L_6      
     e(  5 -  6) =      5.36508  eV     2   --> G_4   L_6      
     e(  7 -  8) =      5.39689  eV     2   --> G_5   L_4      
     e(  7 -  8) =      5.39689  eV     2   --> G_6   L_5      
     e(  9 - 10) =      8.21436  eV     2   --> G_4   L_6      
     e( 11 - 12) =      9.88477  eV     2   --> G_4   L_6      
     e( 13 - 14) =      9.90268  eV     2   --> G_5   L_4      
     e( 13 - 14) =      9.90268  eV     2   --> G_6   L_5      
     e( 15 - 16) =     14.27650  eV     2   --> G_4   L_6      
     e( 17 - 18) =     14.28382  eV     2   --> G_5   L_4      
     e( 17 - 18) =     14.28382  eV     2   --> G_6   L_5      
     e( 19 - 20) =     14.28417  eV     2   --> G_4   L_6      
     e( 21 - 22) =     15.52876  eV     2   --> G_4   L_6      
     e( 23 - 24) =     19.97802  eV     2   --> G_4   L_6      
     e( 25 - 26) =     21.22462  eV     2   --> G_4   L_6      
     e( 27 - 28) =     21.23546  eV     2   --> G_5   L_4      
     e( 27 - 28) =     21.23546  eV     2   --> G_6   L_5      
     e( 29 - 30) =     23.47116  eV     2   --> G_4   L_6      

 **************************************************************************

 **************************************************************************

                    xk=(   0.30000,   0.30000,   0.30000  )

     Band symmetry, C_3v (3m)   double point group:

     e(  1 -  2) =     -4.55159  eV     2   --> G_4   L_6      
     e(  3 -  4) =      1.53566  eV     2   --> G_4   L_6      
     e(  5 -  6) =      5.43155  eV     2   --> G_4   L_6      
     e(  7 -  8) =      5.46329  eV     2   --> G_5   L_4      
     e(  7 -  8) =      5.46329  eV     2   --> G_6   L_5      
     e(  9 - 10) =      8.28756  eV     2   --> G_4   L_6      
     e( 11 - 12) =      9.90506  eV     2   --> G_4   L_6      
     e( 13 - 14) =      9.92412  eV     2   --> G_5   L_4      
     e( 13 - 14) =      9.92412  eV     2   --> G_6   L_5      
     e( 15 - 16) =     13.98826  eV     2   --> G_4   L_6      
     e( 17 - 18) =     13.99344  eV     2   --> G_5   L_4      
     e( 17 - 18) =     13.99344  eV     2   --> G_6   L_5      
     e( 19 - 20) =     14.11349  eV     2   --> G_4   L_6      
     e( 21 - 22) =     15.37255  eV     2   --> G_4   L_6      
     e( 23 - 24) =     19.43694  eV     2   --> G_4   L_6      
     e( 25 - 26) =     21.48820  eV     2   --> G_4   L_6      
     e( 27 - 28) =     21.49748  eV     2   --> G_5   L_4      
     e( 27 - 28) =     21.49748  eV     2   --> G_6   L_5      
     e( 29 - 30) =     23.81286  eV     2   --> G_4   L_6      

 **************************************************************************

 **************************************************************************

                    xk=(   0.27500,   0.27500,   0.27500  )

     Band symmetry, C_3v (3m)   double point group:

     e(  1 -  2) =     -4.72657  eV     2   --> G_4   L_6      
     e(  3 -  4) =      1.96757  eV     2   --> G_4   L_6      
     e(  5 -  6) =      5.50604  eV     2   --> G_4   L_6      
     e(  7 -  8) =      5.53772  eV     2   --> G_5   L_4      
     e(  7 -  8) =      5.53772  eV     2   --> G_6   L_5      
     e(  9 - 10) =      8.36865  eV     2   --> G_4   L_6      
     e( 11 - 12) =      9.90631  eV     2   --> G_4   L_6      
     e( 13 - 14) =      9.92658  eV     2   --> G_5   L_4      
     e( 13 - 14) =      9.92658  eV     2   --> G_6   L_5      
     e( 15 - 16) =     13.75345  eV     2   --> G_4   L_6      
     e( 17 - 18) =     13.75762  eV     2   --> G_5   L_4      
     e( 17 - 18) =     13.75762  eV     2   --> G_6   L_5      
     e( 19 - 20) =     13.80981  eV     2   --> G_4   L_6      
     e( 21 - 22) =     15.36019  eV     2   --> G_4   L_6      
     e( 23 - 24) =     18.87228  eV     2   --> G_4   L_6      
     e( 25 - 26) =     21.42829  eV     2   --> G_4   L_6      
     e( 27 - 28) =     21.43589  eV     2   --> G_5   L_4      
     e( 27 - 28) =     21.43589  eV     2   --> G_6   L_5      
     e( 29 - 30) =     23.94658  eV     2   --> G_4   L_6      

 **************************************************************************

 **************************************************************************

                    xk=(   0.25000,   0.25000,   0.25000  )

     Band symmetry, C_3v (3m)   double point group:

     e(  1 -  2) =     -4.88987  eV     2   --> G_4   L_6      
     e(  3 -  4) =      2.41491  eV     2   --> G_4   L_6      
     e(  5 -  6) =      5.58795  eV     2   --> G_4   L_6      
     e(  7 -  8) =      5.61958  eV     2   --> G_5   L_4      
     e(  7 -  8) =      5.61958  eV     2   --> G_6   L_5      
     e(  9 - 10) =      8.45653  eV     2   --> G_4   L_6      
     e( 11 - 12) =      9.88170  eV     2   --> G_4   L_6      
     e( 13 - 14) =      9.90315  eV     2   --> G_5   L_4      
     e( 13 - 14) =      9.90315  eV     2   --> G_6   L_5      
     e( 15 - 16) =     13.42618  eV     2   --> G_4   L_6      
     e( 17 - 18) =     13.58022  eV     2   --> G_4   L_6      
     e( 19 - 20) =     13.58321  eV     2   --> G_5   L_4      
     e( 19 - 20) =     13.58321  eV     2   --> G_6   L_5      
     e( 21 - 22) =     15.42929  eV     2   --> G_4   L_6      
     e( 23 - 24) =     18.32418  eV     2   --> G_4   L_6      
     e( 25 - 26) =     21.10794  eV     2   --> G_4   L_6      
     e( 27 - 28) =     21.11466  eV     2   --> G_5   L_4      
     e( 27 - 28) =     21.11466  eV     2   --> G_6   L_5      
     e( 29 - 30) =     24.37004  eV     2   --> G_4   L_6      

 **************************************************************************

 **************************************************************************

                    xk=(   0.22500,   0.22500,   0.22500  )

     Band symmetry, C_3v (3m)   double point group:

     e(  1 -  2) =     -5.04010  eV     2   --> G_4   L_6      
     e(  3 -  4) =      2.87481  eV     2   --> G_4   L_6      
     e(  5 -  6) =      5.67647  eV     2   --> G_4   L_6      
     e(  7 -  8) =      5.70806  eV     2   --> G_5   L_4      
     e(  7 -  8) =      5.70806  eV     2   --> G_6   L_5      
     e(  9 - 10) =      8.54972  eV     2   --> G_4   L_6      
     e( 11 - 12) =      9.82680  eV     2   --> G_4   L_6      
     e( 13 - 14) =      9.84928  eV     2   --> G_5   L_4      
     e( 13 - 14) =      9.84928  eV     2   --> G_6   L_5      
     e( 15 - 16) =     13.00477  eV     2   --> G_4   L_6      
     e( 17 - 18) =     13.47243  eV     2   --> G_4   L_6      
     e( 19 - 20) =     13.47448  eV     2   --> G_5   L_4      
     e( 19 - 20) =     13.47448  eV     2   --> G_6   L_5      
     e( 21 - 22) =     15.52248  eV     2   --> G_4   L_6      
     e( 23 - 24) =     17.82442  eV     2   --> G_4   L_6      
     e( 25 - 26) =     20.67312  eV     2   --> G_4   L_6      
     e( 27 - 28) =     20.67952  eV     2   --> G_5   L_4      
     e( 27 - 28) =     20.67952  eV     2   --> G_6   L_5      
     e( 29 - 30) =     24.62131  eV     2   --> G_4   L_6      

 **************************************************************************

 **************************************************************************

                    xk=(   0.20000,   0.20000,   0.20000  )

     Band symmetry, C_3v (3m)   double point group:

     e(  1 -  2) =     -5.17628  eV     2   --> G_4   L_6      
     e(  3 -  4) =      3.34426  eV     2   --> G_4   L_6      
     e(  5 -  6) =      5.77038  eV     2   --> G_4   L_6      
     e(  7 -  8) =      5.80195  eV     2   --> G_5   L_4      
     e(  7 -  8) =      5.80195  eV     2   --> G_6   L_5      
     e(  9 - 10) =      8.64611  eV     2   --> G_4   L_6      
     e( 11 - 12) =      9.74126  eV     2   --> G_4   L_6      
     e( 13 - 14) =      9.76452  eV     2   --> G_5   L_4      
     e( 13 - 14) =      9.76452  eV     2   --> G_6   L_5      
     e( 15 - 16) =     12.56530  eV     2   --> G_4   L_6      
     e( 17 - 18) =     13.42991  eV     2   --> G_4   L_6      
     e( 19 - 20) =     13.43122  eV     2   --> G_5   L_4      
     e( 19 - 20) =     13.43122  eV     2   --> G_6   L_5      
     e( 21 - 22) =     15.58955  eV     2   --> G_4   L_6      
     e( 23 - 24) =     17.41305  eV     2   --> G_4   L_6      
     e( 25 - 26) =     20.20344  eV     2   --> G_4   L_6      
     e( 27 - 28) =     20.20975  eV     2   --> G_5   L_4      
     e( 27 - 28) =     20.20975  eV     2   --> G_6   L_5      
     e( 29 - 30) =     24.39815  eV     2   --> G_4   L_6      

 **************************************************************************

 **************************************************************************

                    xk=(   0.17500,   0.17500,   0.17500  )

     Band symmetry, C_3v (3m)   double point group:

     e(  1 -  2) =     -5.29766  eV     2   --> G_4   L_6      
     e(  3 -  4) =      3.81973  eV     2   --> G_4   L_6      
     e(  5 -  6) =      5.86806  eV     2   --> G_4   L_6      
     e(  7 -  8) =      5.89964  eV     2   --> G_5   L_4      
     e(  7 -  8) =      5.89964  eV     2   --> G_6   L_5      
     e(  9 - 10) =      8.74284  eV     2   --> G_4   L_6      
     e( 11 - 12) =      9.62952  eV     2   --> G_4   L_6      
     e( 13 - 14) =      9.65324  eV     2   --> G_5   L_4      
     e( 13 - 14) =      9.65324  eV     2   --> G_6   L_5      
     e( 15 - 16) =     12.11781  eV     2   --> G_4   L_6      
     e( 17 - 18) =     13.44731  eV     2   --> G_4   L_6      
     e( 19 - 20) =     13.44811  eV     2   --> G_5   L_4      
     e( 19 - 20) =     13.44811  eV     2   --> G_6   L_5      
     e( 21 - 22) =     15.57101  eV     2   --> G_4   L_6      
     e( 23 - 24) =     17.14661  eV     2   --> G_4   L_6      
     e( 25 - 26) =     19.73362  eV     2   --> G_4   L_6      
     e( 27 - 28) =     19.73995  eV     2   --> G_5   L_4      
     e( 27 - 28) =     19.73995  eV     2   --> G_6   L_5      
     e( 29 - 30) =     24.00405  eV     2   --> G_4   L_6      

 **************************************************************************

 **************************************************************************

                    xk=(   0.15000,   0.15000,   0.15000  )

     Band symmetry, C_3v (3m)   double point group:

     e(  1 -  2) =     -5.40369  eV     2   --> G_4   L_6      
     e(  3 -  4) =      4.29665  eV     2   --> G_4   L_6      
     e(  5 -  6) =      5.96723  eV     2   --> G_4   L_6      
     e(  7 -  8) =      5.99883  eV     2   --> G_5   L_4      
     e(  7 -  8) =      5.99883  eV     2   --> G_6   L_5      
     e(  9 - 10) =      8.83581  eV     2   --> G_4   L_6      
     e( 11 - 12) =      9.49978  eV     2   --> G_4   L_6      
     e( 13 - 14) =      9.52368  eV     2   --> G_5   L_4      
     e( 13 - 14) =      9.52368  eV     2   --> G_6   L_5      
     e( 15 - 16) =     11.66975  eV     2   --> G_4   L_6      
     e( 17 - 18) =     13.51480  eV     2   --> G_4   L_6      
     e( 19 - 20) =     13.51530  eV     2   --> G_5   L_4      
     e( 19 - 20) =     13.51530  eV     2   --> G_6   L_5      
     e( 21 - 22) =     15.42792  eV     2   --> G_4   L_6      
     e( 23 - 24) =     17.06315  eV     2   --> G_4   L_6      
     e( 25 - 26) =     19.28152  eV     2   --> G_4   L_6      
     e( 27 - 28) =     19.28792  eV     2   --> G_5   L_4      
     e( 27 - 28) =     19.28792  eV     2   --> G_6   L_5      
     e( 29 - 30) =     23.56312  eV     2   --> G_4   L_6      

 **************************************************************************

 **************************************************************************

                    xk=(   0.12500,   0.12500,   0.12500  )

     Band symmetry, C_3v (3m)   double point group:

     e(  1 -  2) =     -5.49398  eV     2   --> G_4   L_6      
     e(  3 -  4) =      4.76851  eV     2   --> G_4   L_6      
     e(  5 -  6) =      6.06483  eV     2   --> G_4   L_6      
     e(  7 -  8) =      6.09646  eV     2   --> G_5   L_4      
     e(  7 -  8) =      6.09646  eV     2   --> G_6   L_5      
     e(  9 - 10) =      8.91913  eV     2   --> G_4   L_6      
     e( 11 - 12) =      9.36243  eV     2   --> G_4   L_6      
     e( 13 - 14) =      9.38623  eV     2   --> G_5   L_4      
     e( 13 - 14) =      9.38623  eV     2   --> G_6   L_5      
     e( 15 - 16) =     11.23001  eV     2   --> G_4   L_6      
     e( 17 - 18) =     13.61950  eV     2   --> G_4   L_6      
     e( 19 - 20) =     13.61985  eV     2   --> G_5   L_4      
     e( 19 - 20) =     13.61985  eV     2   --> G_6   L_5      
     e( 21 - 22) =     15.19697  eV     2   --> G_4   L_6      
     e( 23 - 24) =     17.12457  eV     2   --> G_4   L_6      
     e( 25 - 26) =     18.85962  eV     2   --> G_4   L_6      
     e( 27 - 28) =     18.86612  eV     2   --> G_5   L_4      
     e( 27 - 28) =     18.86612  eV     2   --> G_6   L_5      
     e( 29 - 30) =     23.12957  eV     2   --> G_4   L_6      

 **************************************************************************

 **************************************************************************

                    xk=(   0.10000,   0.10000,   0.10000  )

     Band symmetry, C_3v (3m)   double point group:

     e(  1 -  2) =     -5.56822  eV     2   --> G_4   L_6      
     e(  3 -  4) =      5.22533  eV     2   --> G_4   L_6      
     e(  5 -  6) =      6.15684  eV     2   --> G_4   L_6      
     e(  7 -  8) =      6.18847  eV     2   --> G_5   L_4      
     e(  7 -  8) =      6.18847  eV     2   --> G_6   L_5      
     e(  9 - 10) =      8.98411  eV     2   --> G_4   L_6      
     e( 11 - 12) =      9.22868  eV     2   --> G_4   L_6      
     e( 13 - 14) =      9.25207  eV     2   --> G_5   L_4      
     e( 13 - 14) =      9.25207  eV     2   --> G_6   L_5      
     e( 15 - 16) =     10.81264  eV     2   --> G_4   L_6      
     e( 17 - 18) =     13.74636  eV     2   --> G_4   L_6      
     e( 19 - 20) =     13.74662  eV     2   --> G_5   L_4      
     e( 19 - 20) =     13.74662  eV     2   --> G_6   L_5      
     e( 21 - 22) =     14.94636  eV     2   --> G_4   L_6      
     e( 23 - 24) =     17.25922  eV     2   --> G_4   L_6      
     e( 25 - 26) =     18.47967  eV     2   --> G_4   L_6      
     e( 27 - 28) =     18.48631  eV     2   --> G_5   L_4      
     e( 27 - 28) =     18.48631  eV     2   --> G_6   L_5      
     e( 29 - 30) =     22.73072  eV     2   --> G_4   L_6      

 **************************************************************************

 **************************************************************************

                    xk=(   0.07500,   0.07500,   0.07500  )

     Band symmetry, C_3v (3m)   double point group:

     e(  1 -  2) =     -5.62616  eV     2   --> G_4   L_6      
     e(  3 -  4) =      5.65057  eV     2   --> G_4   L_6      
     e(  5 -  6) =      6.23826  eV     2   --> G_4   L_6      
     e(  7 -  8) =      6.26973  eV     2   --> G_5   L_4      
     e(  7 -  8) =      6.26973  eV     2   --> G_6   L_5      
     e(  9 - 10) =      9.01771  eV     2   --> G_4   L_6      
     e( 11 - 12) =      9.11029  eV     2   --> G_4   L_6      
     e( 13 - 14) =      9.13222  eV     2   --> G_5   L_4      
     e( 13 - 14) =      9.13222  eV     2   --> G_6   L_5      
     e( 15 - 16) =     10.44126  eV     2   --> G_4   L_6      
     e( 17 - 18) =     13.87816  eV     2   --> G_4   L_6      
     e( 19 - 20) =     13.87834  eV     2   --> G_5   L_4      
     e( 19 - 20) =     13.87834  eV     2   --> G_6   L_5      
     e( 21 - 22) =     14.72199  eV     2   --> G_4   L_6      
     e( 23 - 24) =     17.41440  eV     2   --> G_4   L_6      
     e( 25 - 26) =     18.15520  eV     2   --> G_4   L_6      
     e( 27 - 28) =     18.16198  eV     2   --> G_5   L_4      
     e( 27 - 28) =     18.16198  eV     2   --> G_6   L_5      
     e( 29 - 30) =     22.38695  eV     2   --> G_4   L_6      

 **************************************************************************

 **************************************************************************

                    xk=(   0.05000,   0.05000,   0.05000  )

     Band symmetry, C_3v (3m)   double point group:

     e(  1 -  2) =     -5.66766  eV     2   --> G_4   L_6      
     e(  3 -  4) =      6.01572  eV     2   --> G_4   L_6      
     e(  5 -  6) =      6.30359  eV     2   --> G_4   L_6      
     e(  7 -  8) =      6.33432  eV     2   --> G_5   L_4      
     e(  7 -  8) =      6.33432  eV     2   --> G_6   L_5      
     e(  9 - 10) =      8.99807  eV     2   --> G_4   L_6      
     e( 11 - 12) =      9.02709  eV     2   --> G_4   L_6      
     e( 13 - 14) =      9.03708  eV     2   --> G_5   L_4      
     e( 13 - 14) =      9.03708  eV     2   --> G_6   L_5      
     e( 15 - 16) =     10.15140  eV     2   --> G_4   L_6      
     e( 17 - 20) =     13.99539  eV     4   --> G_4   L_6      
     e( 17 - 20) =     13.99539  eV     4   --> G_5   L_4      
     e( 17 - 20) =     13.99539  eV     4   --> G_6   L_5      
     e( 21 - 22) =     14.54862  eV     2   --> G_4   L_6      
     e( 23 - 24) =     17.55455  eV     2   --> G_4   L_6      
     e( 25 - 26) =     17.90262  eV     2   --> G_4   L_6      
     e( 27 - 28) =     17.90952  eV     2   --> G_5   L_4      
     e( 27 - 28) =     17.90952  eV     2   --> G_6   L_5      
     e( 29 - 30) =     22.11840  eV     2   --> G_4   L_6      

 **************************************************************************

 **************************************************************************

                    xk=(   0.02500,   0.02500,   0.02500  )

     Band symmetry, C_3v (3m)   double point group:

     e(  1 -  2) =     -5.69260  eV     2   --> G_4   L_6      
     e(  3 -  4) =      6.27100  eV     2   --> G_4   L_6      
     e(  5 -  6) =      6.35064  eV     2   --> G_4   L_6      
     e(  7 -  8) =      6.37622  eV     2   --> G_5   L_4      
     e(  7 -  8) =      6.37622  eV     2   --> G_6   L_5      
     e(  9 - 10) =      8.94270  eV     2   --> G_4   L_6      
     e( 11 - 12) =      8.97569  eV     2   --> G_5   L_4      
     e( 11 - 12) =      8.97569  eV     2   --> G_6   L_5      
     e( 13 - 14) =      8.97882  eV     2   --> G_4   L_6      
     e( 15 - 16) =      9.97634  eV     2   --> G_4   L_6      
     e( 17 - 20) =     14.07744  eV     4   --> G_4   L_6      
     e( 17 - 20) =     14.07744  eV     4   --> G_5   L_4      
     e( 17 - 20) =     14.07744  eV     4   --> G_6   L_5      
     e( 21 - 22) =     14.43981  eV     2   --> G_4   L_6      
     e( 23 - 24) =     17.65202  eV     2   --> G_4   L_6      
     e( 25 - 26) =     17.74043  eV     2   --> G_4   L_6      
     e( 27 - 28) =     17.74725  eV     2   --> G_5   L_4      
     e( 27 - 28) =     17.74725  eV     2   --> G_6   L_5      
     e( 29 - 30) =     21.94565  eV     2   --> G_4   L_6      

 **************************************************************************

 **************************************************************************

                    xk=(   0.00000,   0.00000,   0.00000  )

     double point group O_h (m-3m) 
     there are 16 classes and  6 irreducible representations
     the character table:

       E     -E    8C3   -8C3   3C2  6C4   -6C4   6C2' i     -i    8S6   -8S6 
                               -3C2              -6C2'                        
G_6+   2.00 -2.00  1.00 -1.00  0.00  1.41 -1.41  0.00  2.00 -2.00  1.00 -1.00
G_7+   2.00 -2.00  1.00 -1.00  0.00 -1.41  1.41  0.00  2.00 -2.00  1.00 -1.00
G_8+   4.00 -4.00 -1.00  1.00  0.00  0.00  0.00  0.00  4.00 -4.00 -1.00  1.00
G_6-   2.00 -2.00  1.00 -1.00  0.00  1.41 -1.41  0.00 -2.00  2.00 -1.00  1.00
G_7-   2.00 -2.00  1.00 -1.00  0.00 -1.41  1.41  0.00 -2.00  2.00 -1.00  1.00
G_8-   4.00 -4.00 -1.00  1.00  0.00  0.00  0.00  0.00 -4.00  4.00  1.00 -1.00

        3s_h 6S4   -6S4   6s_d
       -3s_h             -6s_d
G_6+   0.00  1.41 -1.41  0.00
G_7+   0.00 -1.41  1.41  0.00
G_8+   0.00  0.00  0.00  0.00
G_6-   0.00 -1.41  1.41  0.00
G_7-   0.00  1.41 -1.41  0.00
G_8-   0.00  0.00  0.00  0.00

     the symmetry operations in each class and the name of the first element:

     E             1
                                                                 
     -E           -1
                                                                 
     8C3          17   19   20   18   24   21   22   23
                                                                 
     -8C3        -17  -19  -20  -18  -24  -21  -22  -23
                                                                 
      3C2 -3C2     2   -2    4   -4    3   -3
                                                                 
     6C4           7    8   15   16   12   11
                                                                 
     -6C4         -7   -8  -15  -16  -12  -11
                                                                 
      6C2'-6C2'    5   -5   -6    6   14  -13  -14   13   10   -9  -10    9
                                                                 
     i            25
                                                                 
     -i          -25
                                                                 
     8S6          41   43   44   42   48   45   46   47
                                                                 
     -8S6        -41  -43  -44  -42  -48  -45  -46  -47
                                                                 
      3s_h-3s_h   26  -26   28  -28   27  -27
                                                                 
     6S4          31   32   39   40   36   35
                                                                 
     -6S4        -31  -32  -39  -40  -36  -35
                                                                 
      6s_d-6s_d   29  -29  -30   30   38  -37  -38   37   34  -33  -34   33
                                                                 

     Band symmetry, O_h (m-3m)  double point group:

     e(  1 -  2) =     -5.70092  eV     2   --> G_6+           
     e(  3 -  4) =      6.34237  eV     2   --> G_7+           
     e(  5 -  8) =      6.39077  eV     4   --> G_8+           
     e(  9 - 10) =      8.91936  eV     2   --> G_6-           
     e( 11 - 14) =      8.95444  eV     4   --> G_8-           
     e( 15 - 16) =      9.92060  eV     2   --> G_7-           
     e( 17 - 20) =     14.10710  eV     4   --> G_8-           
     e( 21 - 22) =     14.40277  eV     2   --> G_6+           
     e( 23 - 24) =     17.68028  eV     2   --> G_7+           
     e( 25 - 28) =     17.69099  eV     4   --> G_8+           
     e( 29 - 30) =     21.88577  eV     2   --> G_7-           

 **************************************************************************

 **************************************************************************

                    xk=(   0.03333,   0.00000,   0.00000  )

     double point group C_4v (4mm) 
     there are  7 classes and  2 irreducible representations
     the character table:

       E     -E    2C4   -2C4   C2    2s_v  2s_d
                               -C2   -2s_v -2s_d
G_6    2.00 -2.00  1.41 -1.41  0.00  0.00  0.00
G_7    2.00 -2.00 -1.41  1.41  0.00  0.00  0.00

     the symmetry operations in each class and the name of the first element:

     E             1
                                                                 
     -E           -1
                                                                 
     2C4           3    4
                                                                 
     -2C4         -3   -4
                                                                 
      C2  -C2      2   -2
                                                                 
      2s_v-2s_v    5   -5    6   -6
                                                                 
      2s_d-2s_d    7   -7   -8    8
                                                                 

     Band symmetry, C_4v (4mm)  double point group:

     e(  1 -  2) =     -5.69599  eV     2   --> G_6   D_6      
     e(  3 -  4) =      6.31690  eV     2   --> G_7   D_7      
     e(  5 -  6) =      6.36227  eV     2   --> G_7   D_7      
     e(  7 -  8) =      6.36881  eV     2   --> G_6   D_6      
     e(  9 - 10) =      8.92300  eV     2   --> G_6   D_6      
     e( 11 - 12) =      8.96655  eV     2   --> G_6   D_6      
     e( 13 - 14) =      8.98187  eV     2   --> G_7   D_7      
     e( 15 - 16) =      9.95256  eV     2   --> G_7   D_7      
     e( 17 - 18) =     14.06633  eV     2   --> G_7   D_7      
     e( 19 - 20) =     14.11255  eV     2   --> G_6   D_6      
     e( 21 - 22) =     14.42477  eV     2   --> G_6   D_6      
     e( 23 - 24) =     17.69138  eV     2   --> G_7   D_7      
     e( 25 - 26) =     17.69951  eV     2   --> G_6   D_6      
     e( 27 - 28) =     17.71709  eV     2   --> G_7   D_7      
     e( 29 - 30) =     21.92157  eV     2   --> G_7   D_7      

 **************************************************************************

 **************************************************************************

                    xk=(   0.06667,   0.00000,   0.00000  )

     Band symmetry, C_4v (4mm)  double point group:

     e(  1 -  2) =     -5.68120  eV     2   --> G_6   D_6      
     e(  3 -  4) =      6.23578  eV     2   --> G_7   D_7      
     e(  5 -  6) =      6.28764  eV     2   --> G_7   D_7      
     e(  7 -  8) =      6.30574  eV     2   --> G_6   D_6      
     e(  9 - 10) =      8.89248  eV     2   --> G_6   D_6      
     e( 11 - 12) =      9.04211  eV     2   --> G_6   D_6      
     e( 13 - 14) =      9.06148  eV     2   --> G_7   D_7      
     e( 15 - 16) =     10.04424  eV     2   --> G_7   D_7      
     e( 17 - 18) =     13.95035  eV     2   --> G_7   D_7      
     e( 19 - 20) =     14.12889  eV     2   --> G_6   D_6      
     e( 21 - 22) =     14.49009  eV     2   --> G_6   D_6      
     e( 23 - 24) =     17.71769  eV     2   --> G_7   D_7      
     e( 25 - 26) =     17.72506  eV     2   --> G_6   D_6      
     e( 27 - 28) =     17.79723  eV     2   --> G_7   D_7      
     e( 29 - 30) =     22.02832  eV     2   --> G_7   D_7      

 **************************************************************************

 **************************************************************************

                    xk=(   0.10000,   0.00000,   0.00000  )

     Band symmetry, C_4v (4mm)  double point group:

     e(  1 -  2) =     -5.65656  eV     2   --> G_6   D_6      
     e(  3 -  4) =      6.09562  eV     2   --> G_7   D_7      
     e(  5 -  6) =      6.18603  eV     2   --> G_7   D_7      
     e(  7 -  8) =      6.20874  eV     2   --> G_6   D_6      
     e(  9 - 10) =      8.83522  eV     2   --> G_6   D_6      
     e( 11 - 12) =      9.16842  eV     2   --> G_6   D_6      
     e( 13 - 14) =      9.18649  eV     2   --> G_7   D_7      
     e( 15 - 16) =     10.18444  eV     2   --> G_7   D_7      
     e( 17 - 18) =     13.77552  eV     2   --> G_7   D_7      
     e( 19 - 20) =     14.15613  eV     2   --> G_6   D_6      
     e( 21 - 22) =     14.59679  eV     2   --> G_6   D_6      
     e( 23 - 24) =     17.76049  eV     2   --> G_7   D_7      
     e( 25 - 26) =     17.76761  eV     2   --> G_6   D_6      
     e( 27 - 28) =     17.91773  eV     2   --> G_7   D_7      
     e( 29 - 30) =     22.20401  eV     2   --> G_7   D_7      

 **************************************************************************

 **************************************************************************

                    xk=(   0.13333,   0.00000,   0.00000  )

     Band symmetry, C_4v (4mm)  double point group:

     e(  1 -  2) =     -5.62207  eV     2   --> G_6   D_6      
     e(  3 -  4) =      5.90946  eV     2   --> G_7   D_7      
     e(  5 -  6) =      6.06370  eV     2   --> G_7   D_7      
     e(  7 -  8) =      6.08646  eV     2   --> G_6   D_6      
     e(  9 - 10) =      8.75801  eV     2   --> G_6   D_6      
     e( 11 - 12) =      9.33271  eV     2   --> G_6   D_6      
     e( 13 - 14) =      9.34856  eV     2   --> G_7   D_7      
     e( 15 - 16) =     10.35773  eV     2   --> G_7   D_7      
     e( 17 - 18) =     13.56324  eV     2   --> G_7   D_7      
     e( 19 - 20) =     14.19425  eV     2   --> G_6   D_6      
     e( 21 - 22) =     14.74197  eV     2   --> G_6   D_6      
     e( 23 - 24) =     17.82015  eV     2   --> G_7   D_7      
     e( 25 - 26) =     17.82711  eV     2   --> G_6   D_6      
     e( 27 - 28) =     18.06424  eV     2   --> G_7   D_7      
     e( 29 - 30) =     22.44513  eV     2   --> G_7   D_7      

 **************************************************************************

 **************************************************************************

                    xk=(   0.16667,   0.00000,   0.00000  )

     Band symmetry, C_4v (4mm)  double point group:

     e(  1 -  2) =     -5.57778  eV     2   --> G_6   D_6      
     e(  3 -  4) =      5.69047  eV     2   --> G_7   D_7      
     e(  5 -  6) =      5.92549  eV     2   --> G_7   D_7      
     e(  7 -  8) =      5.94692  eV     2   --> G_6   D_6      
     e(  9 - 10) =      8.66467  eV     2   --> G_6   D_6      
     e( 11 - 12) =      9.52639  eV     2   --> G_6   D_6      
     e( 13 - 14) =      9.53984  eV     2   --> G_7   D_7      
     e( 15 - 16) =     10.54565  eV     2   --> G_7   D_7      
     e( 17 - 18) =     13.33723  eV     2   --> G_7   D_7      
     e( 19 - 20) =     14.24326  eV     2   --> G_6   D_6      
     e( 21 - 22) =     14.92218  eV     2   --> G_6   D_6      
     e( 23 - 24) =     17.89666  eV     2   --> G_7   D_7      
     e( 25 - 26) =     17.90345  eV     2   --> G_6   D_6      
     e( 27 - 28) =     18.22557  eV     2   --> G_7   D_7      
     e( 29 - 30) =     22.74661  eV     2   --> G_7   D_7      

 **************************************************************************

 **************************************************************************

                    xk=(   0.20000,   0.00000,   0.00000  )

     Band symmetry, C_4v (4mm)  double point group:

     e(  1 -  2) =     -5.52369  eV     2   --> G_6   D_6      
     e(  3 -  4) =      5.44787  eV     2   --> G_7   D_7      
     e(  5 -  6) =      5.77684  eV     2   --> G_7   D_7      
     e(  7 -  8) =      5.79658  eV     2   --> G_6   D_6      
     e(  9 - 10) =      8.55876  eV     2   --> G_6   D_6      
     e( 11 - 12) =      9.74278  eV     2   --> G_6   D_6      
     e( 13 - 14) =      9.75392  eV     2   --> G_7   D_7      
     e( 15 - 16) =     10.72508  eV     2   --> G_7   D_7      
     e( 17 - 18) =     13.12472  eV     2   --> G_7   D_7      
     e( 19 - 20) =     14.30315  eV     2   --> G_6   D_6      
     e( 21 - 22) =     15.13376  eV     2   --> G_6   D_6      
     e( 23 - 24) =     17.98987  eV     2   --> G_7   D_7      
     e( 25 - 26) =     17.99649  eV     2   --> G_6   D_6      
     e( 27 - 28) =     18.39467  eV     2   --> G_7   D_7      
     e( 29 - 30) =     23.10211  eV     2   --> G_7   D_7      

 **************************************************************************

 **************************************************************************

                    xk=(   0.23333,   0.00000,   0.00000  )

     Band symmetry, C_4v (4mm)  double point group:

     e(  1 -  2) =     -5.45984  eV     2   --> G_6   D_6      
     e(  3 -  4) =      5.18825  eV     2   --> G_7   D_7      
     e(  5 -  6) =      5.62226  eV     2   --> G_7   D_7      
     e(  7 -  8) =      5.64029  eV     2   --> G_6   D_6      
     e(  9 - 10) =      8.44369  eV     2   --> G_6   D_6      
     e( 11 - 12) =      9.97684  eV     2   --> G_6   D_6      
     e( 13 - 14) =      9.98583  eV     2   --> G_7   D_7      
     e( 15 - 16) =     10.86463  eV     2   --> G_7   D_7      
     e( 17 - 18) =     12.96027  eV     2   --> G_7   D_7      
     e( 19 - 20) =     14.37392  eV     2   --> G_6   D_6      
     e( 21 - 22) =     15.37309  eV     2   --> G_6   D_6      
     e( 23 - 24) =     18.09957  eV     2   --> G_7   D_7      
     e( 25 - 26) =     18.10599  eV     2   --> G_6   D_6      
     e( 27 - 28) =     18.56814  eV     2   --> G_7   D_7      
     e( 29 - 30) =     23.50438  eV     2   --> G_7   D_7      

 **************************************************************************

 **************************************************************************

                    xk=(   0.26667,   0.00000,   0.00000  )

     Band symmetry, C_4v (4mm)  double point group:

     e(  1 -  2) =     -5.38627  eV     2   --> G_6   D_6      
     e(  3 -  4) =      4.91628  eV     2   --> G_7   D_7      
     e(  5 -  6) =      5.46520  eV     2   --> G_7   D_7      
     e(  7 -  8) =      5.48162  eV     2   --> G_6   D_6      
     e(  9 - 10) =      8.32251  eV     2   --> G_6   D_6      
     e( 11 - 12) =     10.22484  eV     2   --> G_6   D_6      
     e( 13 - 14) =     10.23185  eV     2   --> G_7   D_7      
     e( 15 - 16) =     10.92558  eV     2   --> G_7   D_7      
     e( 17 - 18) =     12.88491  eV     2   --> G_7   D_7      
     e( 19 - 20) =     14.45555  eV     2   --> G_6   D_6      
     e( 21 - 22) =     15.63676  eV     2   --> G_6   D_6      
     e( 23 - 24) =     18.22539  eV     2   --> G_7   D_7      
     e( 25 - 26) =     18.23161  eV     2   --> G_6   D_6      
     e( 27 - 28) =     18.74510  eV     2   --> G_7   D_7      
     e( 29 - 30) =     23.94579  eV     2   --> G_7   D_7      

 **************************************************************************

 **************************************************************************

                    xk=(   0.30000,   0.00000,   0.00000  )

     Band symmetry, C_4v (4mm)  double point group:

     e(  1 -  2) =     -5.30304  eV     2   --> G_6   D_6      
     e(  3 -  4) =      4.63531  eV     2   --> G_7   D_7      
     e(  5 -  6) =      5.30823  eV     2   --> G_7   D_7      
     e(  7 -  8) =      5.32319  eV     2   --> G_6   D_6      
     e(  9 - 10) =      8.19797  eV     2   --> G_6   D_6      
     e( 11 - 12) =     10.48400  eV     2   --> G_6   D_6      
     e( 13 - 14) =     10.48917  eV     2   --> G_7   D_7      
     e( 15 - 16) =     10.88089  eV     2   --> G_7   D_7      
     e( 17 - 18) =     12.92747  eV     2   --> G_7   D_7      
     e( 19 - 20) =     14.54804  eV     2   --> G_6   D_6      
     e( 21 - 22) =     15.92163  eV     2   --> G_6   D_6      
     e( 23 - 24) =     18.36682  eV     2   --> G_7   D_7      
     e( 25 - 26) =     18.37283  eV     2   --> G_6   D_6      
     e( 27 - 28) =     18.92615  eV     2   --> G_7   D_7      
     e( 29 - 30) =     24.41857  eV     2   --> G_7   D_7      

 **************************************************************************

 **************************************************************************

                    xk=(   0.33333,   0.00000,   0.00000  )

     Band symmetry, C_4v (4mm)  double point group:

     e(  1 -  2) =     -5.21019  eV     2   --> G_6   D_6      
     e(  3 -  4) =      4.34770  eV     2   --> G_7   D_7      
     e(  5 -  6) =      5.15327  eV     2   --> G_7   D_7      
     e(  7 -  8) =      5.16690  eV     2   --> G_6   D_6      
     e(  9 - 10) =      8.07238  eV     2   --> G_6   D_6      
     e( 11 - 12) =     10.73600  eV     2   --> G_7   D_7      
     e( 13 - 14) =     10.75228  eV     2   --> G_6   D_6      
     e( 15 - 16) =     10.75857  eV     2   --> G_7   D_7      
     e( 17 - 18) =     13.08098  eV     2   --> G_7   D_7      
     e( 19 - 20) =     14.65140  eV     2   --> G_6   D_6      
     e( 21 - 22) =     16.22481  eV     2   --> G_6   D_6      
     e( 23 - 24) =     18.52308  eV     2   --> G_7   D_7      
     e( 25 - 26) =     18.52889  eV     2   --> G_6   D_6      
     e( 27 - 28) =     19.11259  eV     2   --> G_7   D_7      
     e( 29 - 30) =     24.91499  eV     2   --> G_7   D_7      

 **************************************************************************

 **************************************************************************

                    xk=(   0.36667,   0.00000,   0.00000  )

     Band symmetry, C_4v (4mm)  double point group:

     e(  1 -  2) =     -5.10778  eV     2   --> G_6   D_6      
     e(  3 -  4) =      4.05519  eV     2   --> G_7   D_7      
     e(  5 -  6) =      5.00177  eV     2   --> G_7   D_7      
     e(  7 -  8) =      5.01419  eV     2   --> G_6   D_6      
     e(  9 - 10) =      7.94776  eV     2   --> G_6   D_6      
     e( 11 - 12) =     10.53102  eV     2   --> G_7   D_7      
     e( 13 - 14) =     11.02806  eV     2   --> G_6   D_6      
     e( 15 - 16) =     11.03035  eV     2   --> G_7   D_7      
     e( 17 - 18) =     13.31425  eV     2   --> G_7   D_7      
     e( 19 - 20) =     14.76559  eV     2   --> G_6   D_6      
     e( 21 - 22) =     16.54357  eV     2   --> G_6   D_6      
     e( 23 - 24) =     18.69305  eV     2   --> G_7   D_7      
     e( 25 - 26) =     18.69866  eV     2   --> G_6   D_6      
     e( 27 - 28) =     19.30602  eV     2   --> G_7   D_7      
     e( 29 - 30) =     25.42719  eV     2   --> G_7   D_7      

 **************************************************************************

 **************************************************************************

                    xk=(   0.40000,   0.00000,   0.00000  )

     Band symmetry, C_4v (4mm)  double point group:

     e(  1 -  2) =     -4.99588  eV     2   --> G_6   D_6      
     e(  3 -  4) =      3.75906  eV     2   --> G_7   D_7      
     e(  5 -  6) =      4.85483  eV     2   --> G_7   D_7      
     e(  7 -  8) =      4.86615  eV     2   --> G_6   D_6      
     e(  9 - 10) =      7.82579  eV     2   --> G_6   D_6      
     e( 11 - 12) =     10.28809  eV     2   --> G_7   D_7      
     e( 13 - 14) =     11.31013  eV     2   --> G_6   D_6      
     e( 15 - 16) =     11.31100  eV     2   --> G_7   D_7      
     e( 17 - 18) =     13.59805  eV     2   --> G_7   D_7      
     e( 19 - 20) =     14.89059  eV     2   --> G_6   D_6      
     e( 21 - 22) =     16.87533  eV     2   --> G_6   D_6      
     e( 23 - 24) =     18.87502  eV     2   --> G_7   D_7      
     e( 25 - 26) =     18.88046  eV     2   --> G_6   D_6      
     e( 27 - 28) =     19.50802  eV     2   --> G_7   D_7      
     e( 29 - 30) =     25.13654  eV     2   --> G_6   D_6      

 **************************************************************************

 **************************************************************************

                    xk=(   0.43333,   0.00000,   0.00000  )

     Band symmetry, C_4v (4mm)  double point group:

     e(  1 -  2) =     -4.87457  eV     2   --> G_6   D_6      
     e(  3 -  4) =      3.46027  eV     2   --> G_7   D_7      
     e(  5 -  6) =      4.71328  eV     2   --> G_7   D_7      
     e(  7 -  8) =      4.72360  eV     2   --> G_6   D_6      
     e(  9 - 10) =      7.70789  eV     2   --> G_6   D_6      
     e( 11 - 12) =     10.02907  eV     2   --> G_7   D_7      
     e( 13 - 14) =     11.59714  eV     2   --> G_7   D_7      
     e( 15 - 16) =     11.59754  eV     2   --> G_6   D_6      
     e( 17 - 18) =     13.91323  eV     2   --> G_7   D_7      
     e( 19 - 20) =     15.02641  eV     2   --> G_6   D_6      
     e( 21 - 22) =     17.21749  eV     2   --> G_6   D_6      
     e( 23 - 24) =     19.06648  eV     2   --> G_7   D_7      
     e( 25 - 26) =     19.07177  eV     2   --> G_6   D_6      
     e( 27 - 28) =     19.72011  eV     2   --> G_7   D_7      
     e( 29 - 30) =     24.71804  eV     2   --> G_6   D_6      

 **************************************************************************

 **************************************************************************

                    xk=(   0.46667,   0.00000,   0.00000  )

     Band symmetry, C_4v (4mm)  double point group:

     e(  1 -  2) =     -4.74394  eV     2   --> G_6   D_6      
     e(  3 -  4) =      3.15958  eV     2   --> G_7   D_7      
     e(  5 -  6) =      4.57779  eV     2   --> G_7   D_7      
     e(  7 -  8) =      4.58720  eV     2   --> G_6   D_6      
     e(  9 - 10) =      7.59525  eV     2   --> G_6   D_6      
     e( 11 - 12) =      9.76555  eV     2   --> G_7   D_7      
     e( 13 - 14) =     11.88796  eV     2   --> G_7   D_7      
     e( 15 - 16) =     11.88953  eV     2   --> G_6   D_6      
     e( 17 - 18) =     14.24829  eV     2   --> G_7   D_7      
     e( 19 - 20) =     15.17302  eV     2   --> G_6   D_6      
     e( 21 - 22) =     17.56730  eV     2   --> G_6   D_6      
     e( 23 - 24) =     19.26357  eV     2   --> G_7   D_7      
     e( 25 - 26) =     19.26875  eV     2   --> G_6   D_6      
     e( 27 - 28) =     19.94365  eV     2   --> G_7   D_7      
     e( 29 - 30) =     24.31716  eV     2   --> G_6   D_6      

 **************************************************************************

 **************************************************************************

                    xk=(   0.50000,   0.00000,   0.00000  )

     Band symmetry, C_4v (4mm)  double point group:

     e(  1 -  2) =     -4.60407  eV     2   --> G_6   D_6      
     e(  3 -  4) =      2.85763  eV     2   --> G_7   D_7      
     e(  5 -  6) =      4.44891  eV     2   --> G_7   D_7      
     e(  7 -  8) =      4.45747  eV     2   --> G_6   D_6      
     e(  9 - 10) =      7.48890  eV     2   --> G_6   D_6      
     e( 11 - 12) =      9.50448  eV     2   --> G_7   D_7      
     e( 13 - 14) =     12.18286  eV     2   --> G_7   D_7      
     e( 15 - 16) =     12.18551  eV     2   --> G_6   D_6      
     e( 17 - 18) =     14.59618  eV     2   --> G_7   D_7      
     e( 19 - 20) =     15.33041  eV     2   --> G_6   D_6      
     e( 21 - 22) =     17.92173  eV     2   --> G_6   D_6      
     e( 23 - 24) =     19.46033  eV     2   --> G_7   D_7      
     e( 25 - 26) =     19.46543  eV     2   --> G_6   D_6      
     e( 27 - 28) =     20.17983  eV     2   --> G_7   D_7      
     e( 29 - 30) =     23.94049  eV     2   --> G_6   D_6      

 **************************************************************************

 **************************************************************************

                    xk=(   0.53333,   0.00000,   0.00000  )

     Band symmetry, C_4v (4mm)  double point group:

     e(  1 -  2) =     -4.45507  eV     2   --> G_6   D_6      
     e(  3 -  4) =      2.55496  eV     2   --> G_7   D_7      
     e(  5 -  6) =      4.32705  eV     2   --> G_7   D_7      
     e(  7 -  8) =      4.33482  eV     2   --> G_6   D_6      
     e(  9 - 10) =      7.38971  eV     2   --> G_6   D_6      
     e( 11 - 12) =      9.25015  eV     2   --> G_7   D_7      
     e( 13 - 14) =     12.48137  eV     2   --> G_7   D_7      
     e( 15 - 16) =     12.48502  eV     2   --> G_6   D_6      
     e( 17 - 18) =     14.95225  eV     2   --> G_7   D_7      
     e( 19 - 20) =     15.49855  eV     2   --> G_6   D_6      
     e( 21 - 22) =     18.27726  eV     2   --> G_6   D_6      
     e( 23 - 24) =     19.64750  eV     2   --> G_7   D_7      
     e( 25 - 26) =     19.65250  eV     2   --> G_6   D_6      
     e( 27 - 28) =     20.42972  eV     2   --> G_7   D_7      
     e( 29 - 30) =     23.59782  eV     2   --> G_6   D_6      

 **************************************************************************

 **************************************************************************

                    xk=(   0.56667,   0.00000,   0.00000  )

     Band symmetry, C_4v (4mm)  double point group:

     e(  1 -  2) =     -4.29706  eV     2   --> G_6   D_6      
     e(  3 -  4) =      2.25206  eV     2   --> G_7   D_7      
     e(  5 -  6) =      4.21256  eV     2   --> G_7   D_7      
     e(  7 -  8) =      4.21960  eV     2   --> G_6   D_6      
     e(  9 - 10) =      7.29842  eV     2   --> G_6   D_6      
     e( 11 - 12) =      9.00534  eV     2   --> G_7   D_7      
     e( 13 - 14) =     12.78313  eV     2   --> G_7   D_7      
     e( 15 - 16) =     12.78768  eV     2   --> G_6   D_6      
     e( 17 - 18) =     15.31318  eV     2   --> G_7   D_7      
     e( 19 - 20) =     15.67744  eV     2   --> G_6   D_6      
     e( 21 - 22) =     18.62957  eV     2   --> G_6   D_6      
     e( 23 - 24) =     19.81082  eV     2   --> G_7   D_7      
     e( 25 - 26) =     19.81559  eV     2   --> G_6   D_6      
     e( 27 - 28) =     20.69420  eV     2   --> G_7   D_7      
     e( 29 - 30) =     23.30376  eV     2   --> G_6   D_6      

 **************************************************************************

 **************************************************************************

                    xk=(   0.60000,   0.00000,   0.00000  )

     Band symmetry, C_4v (4mm)  double point group:

     e(  1 -  2) =     -4.13016  eV     2   --> G_6   D_6      
     e(  3 -  4) =      1.94940  eV     2   --> G_7   D_7      
     e(  5 -  6) =      4.10572  eV     2   --> G_7   D_7      
     e(  7 -  8) =      4.11208  eV     2   --> G_6   D_6      
     e(  9 - 10) =      7.21567  eV     2   --> G_6   D_6      
     e( 11 - 12) =      8.77190  eV     2   --> G_7   D_7      
     e( 13 - 14) =     13.08784  eV     2   --> G_7   D_7      
     e( 15 - 16) =     13.09323  eV     2   --> G_6   D_6      
     e( 17 - 18) =     15.67649  eV     2   --> G_7   D_7      
     e( 19 - 20) =     15.86705  eV     2   --> G_6   D_6      
     e( 21 - 22) =     18.97331  eV     2   --> G_6   D_6      
     e( 23 - 24) =     19.92979  eV     2   --> G_7   D_7      
     e( 25 - 26) =     19.93401  eV     2   --> G_6   D_6      
     e( 27 - 28) =     20.97403  eV     2   --> G_7   D_7      
     e( 29 - 30) =     23.07915  eV     2   --> G_6   D_6      

 **************************************************************************

 **************************************************************************

                    xk=(   0.63333,   0.00000,   0.00000  )

     Band symmetry, C_4v (4mm)  double point group:

     e(  1 -  2) =     -3.95450  eV     2   --> G_6   D_6      
     e(  3 -  4) =      1.64744  eV     2   --> G_7   D_7      
     e(  5 -  6) =      4.00678  eV     2   --> G_7   D_7      
     e(  7 -  8) =      4.01250  eV     2   --> G_6   D_6      
     e(  9 - 10) =      7.14206  eV     2   --> G_6   D_6      
     e( 11 - 12) =      8.55104  eV     2   --> G_7   D_7      
     e( 13 - 14) =     13.39531  eV     2   --> G_7   D_7      
     e( 15 - 16) =     13.40146  eV     2   --> G_6   D_6      
     e( 17 - 18) =     16.04018  eV     2   --> G_7   D_7      
     e( 19 - 20) =     16.06734  eV     2   --> G_6   D_6      
     e( 21 - 22) =     19.30165  eV     2   --> G_6   D_6      
     e( 23 - 24) =     19.97980  eV     2   --> G_7   D_7      
     e( 25 - 26) =     19.98290  eV     2   --> G_6   D_6      
     e( 27 - 28) =     21.26981  eV     2   --> G_7   D_7      
     e( 29 - 30) =     22.94890  eV     2   --> G_6   D_6      

 **************************************************************************

 **************************************************************************

                    xk=(   0.66667,   0.00000,   0.00000  )

     Band symmetry, C_4v (4mm)  double point group:

     e(  1 -  2) =     -3.77024  eV     2   --> G_6   D_6      
     e(  3 -  4) =      1.34665  eV     2   --> G_7   D_7      
     e(  5 -  6) =      3.91593  eV     2   --> G_7   D_7      
     e(  7 -  8) =      3.92104  eV     2   --> G_6   D_6      
     e(  9 - 10) =      7.07806  eV     2   --> G_6   D_6      
     e( 11 - 12) =      8.34360  eV     2   --> G_7   D_7      
     e( 13 - 14) =     13.70533  eV     2   --> G_7   D_7      
     e( 15 - 16) =     13.71217  eV     2   --> G_6   D_6      
     e( 17 - 18) =     16.27830  eV     2   --> G_6   D_6      
     e( 19 - 20) =     16.40251  eV     2   --> G_7   D_7      
     e( 21 - 22) =     19.60591  eV     2   --> G_6   D_6      
     e( 23 - 24) =     19.94136  eV     2   --> G_7   D_7      
     e( 25 - 26) =     19.94274  eV     2   --> G_6   D_6      
     e( 27 - 28) =     21.58188  eV     2   --> G_7   D_7      
     e( 29 - 30) =     22.65710  eV     2   --> G_7   D_7      

 **************************************************************************

 **************************************************************************

                    xk=(   0.70000,   0.00000,   0.00000  )

     Band symmetry, C_4v (4mm)  double point group:

     e(  1 -  2) =     -3.57754  eV     2   --> G_6   D_6      
     e(  3 -  4) =      1.04745  eV     2   --> G_7   D_7      
     e(  5 -  6) =      3.83335  eV     2   --> G_7   D_7      
     e(  7 -  8) =      3.83787  eV     2   --> G_6   D_6      
     e(  9 - 10) =      7.02414  eV     2   --> G_6   D_6      
     e( 11 - 12) =      8.15010  eV     2   --> G_7   D_7      
     e( 13 - 14) =     14.01777  eV     2   --> G_7   D_7      
     e( 15 - 16) =     14.02521  eV     2   --> G_6   D_6      
     e( 17 - 18) =     16.49989  eV     2   --> G_6   D_6      
     e( 19 - 20) =     16.76198  eV     2   --> G_7   D_7      
     e( 21 - 22) =     19.80987  eV     2   --> G_6   D_6      
     e( 23 - 24) =     19.81225  eV     2   --> G_7   D_7      
     e( 25 - 26) =     19.87728  eV     2   --> G_6   D_6      
     e( 27 - 28) =     21.91041  eV     2   --> G_7   D_7      
     e( 29 - 30) =     22.24615  eV     2   --> G_7   D_7      

 **************************************************************************

 **************************************************************************

                    xk=(   0.73333,   0.00000,   0.00000  )

     Band symmetry, C_4v (4mm)  double point group:

     e(  1 -  2) =     -3.37658  eV     2   --> G_6   D_6      
     e(  3 -  4) =      0.75033  eV     2   --> G_7   D_7      
     e(  5 -  6) =      3.75915  eV     2   --> G_7   D_7      
     e(  7 -  8) =      3.76311  eV     2   --> G_6   D_6      
     e(  9 - 10) =      6.98073  eV     2   --> G_6   D_6      
     e( 11 - 12) =      7.97087  eV     2   --> G_7   D_7      
     e( 13 - 14) =     14.33246  eV     2   --> G_7   D_7      
     e( 15 - 16) =     14.34043  eV     2   --> G_6   D_6      
     e( 17 - 18) =     16.73207  eV     2   --> G_6   D_6      
     e( 19 - 20) =     17.11722  eV     2   --> G_7   D_7      
     e( 21 - 22) =     19.60469  eV     2   --> G_6   D_6      
     e( 23 - 24) =     19.60809  eV     2   --> G_7   D_7      
     e( 25 - 26) =     20.09942  eV     2   --> G_6   D_6      
     e( 27 - 28) =     21.84399  eV     2   --> G_7   D_7      
     e( 29 - 30) =     22.25527  eV     2   --> G_7   D_7      

 **************************************************************************

 **************************************************************************

                    xk=(   0.76667,   0.00000,   0.00000  )

     Band symmetry, C_4v (4mm)  double point group:

     e(  1 -  2) =     -3.16755  eV     2   --> G_6   D_6      
     e(  3 -  4) =      0.45575  eV     2   --> G_7   D_7      
     e(  5 -  6) =      3.69347  eV     2   --> G_7   D_7      
     e(  7 -  8) =      3.69690  eV     2   --> G_6   D_6      
     e(  9 - 10) =      6.94818  eV     2   --> G_6   D_6      
     e( 11 - 12) =      7.80609  eV     2   --> G_7   D_7      
     e( 13 - 14) =     14.64916  eV     2   --> G_7   D_7      
     e( 15 - 16) =     14.65759  eV     2   --> G_6   D_6      
     e( 17 - 18) =     16.97482  eV     2   --> G_6   D_6      
     e( 19 - 20) =     17.46694  eV     2   --> G_7   D_7      
     e( 21 - 22) =     19.34604  eV     2   --> G_6   D_6      
     e( 23 - 24) =     19.35114  eV     2   --> G_7   D_7      
     e( 25 - 26) =     20.26391  eV     2   --> G_6   D_6      
     e( 27 - 28) =     21.45086  eV     2   --> G_7   D_7      
     e( 29 - 30) =     22.61597  eV     2   --> G_7   D_7      

 **************************************************************************

 **************************************************************************

                    xk=(   0.80000,   0.00000,   0.00000  )

     Band symmetry, C_4v (4mm)  double point group:

     e(  1 -  2) =     -2.95065  eV     2   --> G_6   D_6      
     e(  3 -  4) =      0.16416  eV     2   --> G_7   D_7      
     e(  5 -  6) =      3.63640  eV     2   --> G_7   D_7      
     e(  7 -  8) =      3.63931  eV     2   --> G_6   D_6      
     e(  9 - 10) =      6.92687  eV     2   --> G_6   D_6      
     e( 11 - 12) =      7.65580  eV     2   --> G_7   D_7      
     e( 13 - 14) =     14.96750  eV     2   --> G_7   D_7      
     e( 15 - 16) =     14.97629  eV     2   --> G_6   D_6      
     e( 17 - 18) =     17.22810  eV     2   --> G_6   D_6      
     e( 19 - 20) =     17.80985  eV     2   --> G_7   D_7      
     e( 21 - 22) =     19.05428  eV     2   --> G_6   D_6      
     e( 23 - 24) =     19.06073  eV     2   --> G_7   D_7      
     e( 25 - 26) =     20.36023  eV     2   --> G_6   D_6      
     e( 27 - 28) =     21.06696  eV     2   --> G_7   D_7      
     e( 29 - 30) =     22.99154  eV     2   --> G_7   D_7      

 **************************************************************************

 **************************************************************************

                    xk=(   0.83333,   0.00000,   0.00000  )

     Band symmetry, C_4v (4mm)  double point group:

     e(  1 -  2) =     -2.72612  eV     2   --> G_6   D_6      
     e(  3 -  4) =     -0.12400  eV     2   --> G_7   D_7      
     e(  5 -  6) =      3.58802  eV     2   --> G_7   D_7      
     e(  7 -  8) =      3.59042  eV     2   --> G_6   D_6      
     e(  9 - 10) =      6.91712  eV     2   --> G_6   D_6      
     e( 11 - 12) =      7.51997  eV     2   --> G_7   D_7      
     e( 13 - 14) =     15.28673  eV     2   --> G_7   D_7      
     e( 15 - 16) =     15.29578  eV     2   --> G_6   D_6      
     e( 17 - 18) =     17.49185  eV     2   --> G_6   D_6      
     e( 19 - 20) =     18.14459  eV     2   --> G_7   D_7      
     e( 21 - 22) =     18.74349  eV     2   --> G_6   D_6      
     e( 23 - 24) =     18.75098  eV     2   --> G_7   D_7      
     e( 25 - 26) =     20.38413  eV     2   --> G_6   D_6      
     e( 27 - 28) =     20.69247  eV     2   --> G_7   D_7      
     e( 29 - 30) =     23.38038  eV     2   --> G_7   D_7      

 **************************************************************************

 **************************************************************************

                    xk=(   0.86667,   0.00000,   0.00000  )

     Band symmetry, C_4v (4mm)  double point group:

     e(  1 -  2) =     -2.49420  eV     2   --> G_6   D_6      
     e(  3 -  4) =     -0.40826  eV     2   --> G_7   D_7      
     e(  5 -  6) =      3.54840  eV     2   --> G_7   D_7      
     e(  7 -  8) =      3.55031  eV     2   --> G_6   D_6      
     e(  9 - 10) =      6.91926  eV     2   --> G_6   D_6      
     e( 11 - 12) =      7.39849  eV     2   --> G_7   D_7      
     e( 13 - 14) =     15.60544  eV     2   --> G_7   D_7      
     e( 15 - 16) =     15.61462  eV     2   --> G_6   D_6      
     e( 17 - 18) =     17.76604  eV     2   --> G_6   D_6      
     e( 19 - 20) =     18.42382  eV     2   --> G_6   D_6      
     e( 21 - 22) =     18.43038  eV     2   --> G_7   D_7      
     e( 23 - 24) =     18.47132  eV     2   --> G_7   D_7      
     e( 25 - 26) =     20.32755  eV     2   --> G_7   D_7      
     e( 27 - 28) =     20.33794  eV     2   --> G_6   D_6      
     e( 29 - 30) =     23.77991  eV     2   --> G_7   D_7      

 **************************************************************************

 **************************************************************************

                    xk=(   0.90000,   0.00000,   0.00000  )

     Band symmetry, C_4v (4mm)  double point group:

     e(  1 -  2) =     -2.25513  eV     2   --> G_6   D_6      
     e(  3 -  4) =     -0.68823  eV     2   --> G_7   D_7      
     e(  5 -  6) =      3.51758  eV     2   --> G_7   D_7      
     e(  7 -  8) =      3.51900  eV     2   --> G_6   D_6      
     e(  9 - 10) =      6.93358  eV     2   --> G_6   D_6      
     e( 11 - 12) =      7.29121  eV     2   --> G_7   D_7      
     e( 13 - 14) =     15.92043  eV     2   --> G_7   D_7      
     e( 15 - 16) =     15.92953  eV     2   --> G_6   D_6      
     e( 17 - 18) =     18.05060  eV     2   --> G_6   D_6      
     e( 19 - 20) =     18.10402  eV     2   --> G_6   D_6      
     e( 21 - 22) =     18.11228  eV     2   --> G_7   D_7      
     e( 23 - 24) =     18.78360  eV     2   --> G_7   D_7      
     e( 25 - 26) =     19.97232  eV     2   --> G_7   D_7      
     e( 27 - 28) =     20.22929  eV     2   --> G_6   D_6      
     e( 29 - 30) =     24.18597  eV     2   --> G_7   D_7      

 **************************************************************************

 **************************************************************************

                    xk=(   0.93333,   0.00000,   0.00000  )

     Band symmetry, C_4v (4mm)  double point group:

     e(  1 -  2) =     -2.00923  eV     2   --> G_6   D_6      
     e(  3 -  4) =     -0.96344  eV     2   --> G_7   D_7      
     e(  5 -  6) =      3.49560  eV     2   --> G_7   D_7      
     e(  7 -  8) =      3.49655  eV     2   --> G_6   D_6      
     e(  9 - 10) =      6.96039  eV     2   --> G_6   D_6      
     e( 11 - 12) =      7.19795  eV     2   --> G_7   D_7      
     e( 13 - 14) =     16.22346  eV     2   --> G_7   D_7      
     e( 15 - 16) =     16.23201  eV     2   --> G_6   D_6      
     e( 17 - 18) =     17.79601  eV     2   --> G_6   D_6      
     e( 19 - 20) =     17.80406  eV     2   --> G_7   D_7      
     e( 21 - 22) =     18.34549  eV     2   --> G_6   D_6      
     e( 23 - 24) =     19.08350  eV     2   --> G_7   D_7      
     e( 25 - 26) =     19.62691  eV     2   --> G_7   D_7      
     e( 27 - 28) =     20.06833  eV     2   --> G_6   D_6      
     e( 29 - 30) =     24.59147  eV     2   --> G_7   D_7      

 **************************************************************************

 **************************************************************************

                    xk=(   0.96667,   0.00000,   0.00000  )

     Band symmetry, C_4v (4mm)  double point group:

     e(  1 -  2) =     -1.75677  eV     2   --> G_6   D_6      
     e(  3 -  4) =     -1.23353  eV     2   --> G_7   D_7      
     e(  5 -  6) =      3.48250  eV     2   --> G_7   D_7      
     e(  7 -  8) =      3.48297  eV     2   --> G_6   D_6      
     e(  9 - 10) =      6.99995  eV     2   --> G_6   D_6      
     e( 11 - 12) =      7.11847  eV     2   --> G_7   D_7      
     e( 13 - 14) =     16.48760  eV     2   --> G_7   D_7      
     e( 15 - 16) =     16.49409  eV     2   --> G_6   D_6      
     e( 17 - 18) =     17.52981  eV     2   --> G_6   D_6      
     e( 19 - 20) =     17.53606  eV     2   --> G_7   D_7      
     e( 21 - 22) =     18.65063  eV     2   --> G_6   D_6      
     e( 23 - 24) =     19.29142  eV     2   --> G_7   D_7      
     e( 25 - 26) =     19.36667  eV     2   --> G_7   D_7      
     e( 27 - 28) =     19.86530  eV     2   --> G_6   D_6      
     e( 29 - 30) =     24.98357  eV     2   --> G_7   D_7      

 **************************************************************************

 **************************************************************************

                    xk=(   1.00000,   0.00000,   0.00000  )

     zone border point and non-symmorphic group 
     symmetry decomposition not available

 **************************************************************************

 **************************************************************************

                    xk=(   1.00000,   0.02500,   0.02500  )

     zone border point and non-symmorphic group 
     symmetry decomposition not available

 **************************************************************************

 **************************************************************************

                    xk=(   1.00000,   0.05000,   0.05000  )

     zone border point and non-symmorphic group 
     symmetry decomposition not available

 **************************************************************************

 **************************************************************************

                    xk=(   1.00000,   0.07500,   0.07500  )

     zone border point and non-symmorphic group 
     symmetry decomposition not available

 **************************************************************************

 **************************************************************************

                    xk=(   1.00000,   0.10000,   0.10000  )

     zone border point and non-symmorphic group 
     symmetry decomposition not available

 **************************************************************************

 **************************************************************************

                    xk=(   1.00000,   0.12500,   0.12500  )

     zone border point and non-symmorphic group 
     symmetry decomposition not available

 **************************************************************************

 **************************************************************************

                    xk=(   1.00000,   0.15000,   0.15000  )

     zone border point and non-symmorphic group 
     symmetry decomposition not available

 **************************************************************************

 **************************************************************************

                    xk=(   1.00000,   0.17500,   0.17500  )

     zone border point and non-symmorphic group 
     symmetry decomposition not available

 **************************************************************************

 **************************************************************************

                    xk=(   1.00000,   0.20000,   0.20000  )

     zone border point and non-symmorphic group 
     symmetry decomposition not available

 **************************************************************************

 **************************************************************************

                    xk=(   1.00000,   0.22500,   0.22500  )

     zone border point and non-symmorphic group 
     symmetry decomposition not available

 **************************************************************************

 **************************************************************************

                    xk=(   1.00000,   0.25000,   0.25000  )

     zone border point and non-symmorphic group 
     symmetry decomposition not available

 **************************************************************************

 **************************************************************************

                    xk=(   0.96667,   0.24167,   0.24167  )

     double point group C_s (m)    
     there are  4 classes and  2 irreducible representations
     the character table:

       E     -E    s     -s   
                              
G_3    1.00 -1.00  0.00  0.00
G_4    1.00 -1.00  0.00  0.00

     imaginary part

       E     -E    s     -s   
                              
G_3    0.00  0.00  1.00 -1.00
G_4    0.00  0.00 -1.00  1.00

     the symmetry operations in each class and the name of the first element:

     E             1
                                                                 
     -E           -1
                                                                 
     s             2
                                                                 
     -s           -2
                                                                 

     Band symmetry, C_s (m)     double point group:

     e(  1 -  2) =     -1.91516  eV     2   --> G_3            
     e(  1 -  2) =     -1.91516  eV     2   --> G_4            
     e(  3 -  4) =     -0.90355  eV     2   --> G_3            
     e(  3 -  4) =     -0.90355  eV     2   --> G_4            
     e(  5 -  6) =      2.04103  eV     2   --> G_3            
     e(  5 -  6) =      2.04103  eV     2   --> G_4            
     e(  7 -  8) =      3.88842  eV     2   --> G_3            
     e(  7 -  8) =      3.88842  eV     2   --> G_4            
     e(  9 - 10) =      7.52925  eV     2   --> G_3            
     e(  9 - 10) =      7.52925  eV     2   --> G_4            
     e( 11 - 12) =     10.35403  eV     2   --> G_3            
     e( 11 - 12) =     10.35403  eV     2   --> G_4            
     e( 13 - 14) =     13.93369  eV     2   --> G_3            
     e( 13 - 14) =     13.93369  eV     2   --> G_4            
     e( 15 - 16) =     14.34628  eV     2   --> G_3            
     e( 15 - 16) =     14.34628  eV     2   --> G_4            
     e( 17 - 18) =     15.03613  eV     2   --> G_3            
     e( 17 - 18) =     15.03613  eV     2   --> G_4            
     e( 19 - 20) =     15.09434  eV     2   --> G_3            
     e( 19 - 20) =     15.09434  eV     2   --> G_4            
     e( 21 - 22) =     21.05749  eV     2   --> G_3            
     e( 21 - 22) =     21.05749  eV     2   --> G_4            
     e( 23 - 24) =     21.19723  eV     2   --> G_3            
     e( 23 - 24) =     21.19723  eV     2   --> G_4            
     e( 25 - 26) =     21.88556  eV     2   --> G_3            
     e( 25 - 26) =     21.88556  eV     2   --> G_4            
     e( 27 - 28) =     22.06458  eV     2   --> G_3            
     e( 27 - 28) =     22.06458  eV     2   --> G_4            
     e( 29 - 30) =     22.87994  eV     2   --> G_3            
     e( 29 - 30) =     22.87994  eV     2   --> G_4            

 **************************************************************************

 **************************************************************************

                    xk=(   0.93333,   0.23333,   0.23333  )

     Band symmetry, C_s (m)     double point group:

     e(  1 -  2) =     -2.00293  eV     2   --> G_3            
     e(  1 -  2) =     -2.00293  eV     2   --> G_4            
     e(  3 -  4) =     -0.82579  eV     2   --> G_3            
     e(  3 -  4) =     -0.82579  eV     2   --> G_4            
     e(  5 -  6) =      2.11606  eV     2   --> G_3            
     e(  5 -  6) =      2.11606  eV     2   --> G_4            
     e(  7 -  8) =      3.87390  eV     2   --> G_3            
     e(  7 -  8) =      3.87390  eV     2   --> G_4            
     e(  9 - 10) =      7.51569  eV     2   --> G_3            
     e(  9 - 10) =      7.51569  eV     2   --> G_4            
     e( 11 - 12) =     10.20472  eV     2   --> G_3            
     e( 11 - 12) =     10.20472  eV     2   --> G_4            
     e( 13 - 14) =     13.84231  eV     2   --> G_3            
     e( 13 - 14) =     13.84231  eV     2   --> G_4            
     e( 15 - 16) =     14.13065  eV     2   --> G_3            
     e( 15 - 16) =     14.13065  eV     2   --> G_4            
     e( 17 - 18) =     15.40870  eV     2   --> G_3            
     e( 17 - 18) =     15.40870  eV     2   --> G_4            
     e( 19 - 20) =     15.44005  eV     2   --> G_3            
[...]
     e( 23 - 24) =     17.70025  eV     2   --> G_4            
     e( 25 - 26) =     18.53624  eV     2   --> G_3            
     e( 25 - 26) =     18.53624  eV     2   --> G_4            
     e( 27 - 28) =     19.37784  eV     2   --> G_3            
     e( 27 - 28) =     19.37784  eV     2   --> G_4            
     e( 29 - 30) =     24.06208  eV     2   --> G_3            
     e( 29 - 30) =     24.06208  eV     2   --> G_4            

 **************************************************************************

 **************************************************************************

                    xk=(   0.23333,   0.05833,   0.05833  )

     Band symmetry, C_s (m)     double point group:

     e(  1 -  2) =     -5.43015  eV     2   --> G_3            
     e(  1 -  2) =     -5.43015  eV     2   --> G_4            
     e(  3 -  4) =      4.81998  eV     2   --> G_3            
     e(  3 -  4) =      4.81998  eV     2   --> G_4            
     e(  5 -  6) =      5.63567  eV     2   --> G_3            
     e(  5 -  6) =      5.63567  eV     2   --> G_4            
     e(  7 -  8) =      5.79054  eV     2   --> G_3            
     e(  7 -  8) =      5.79054  eV     2   --> G_4            
     e(  9 - 10) =      8.60677  eV     2   --> G_3            
     e(  9 - 10) =      8.60677  eV     2   --> G_4            
     e( 11 - 12) =      9.72240  eV     2   --> G_3            
     e( 11 - 12) =      9.72240  eV     2   --> G_4            
     e( 13 - 14) =      9.97413  eV     2   --> G_3            
     e( 13 - 14) =      9.97413  eV     2   --> G_4            
     e( 15 - 16) =     11.14162  eV     2   --> G_3            
     e( 15 - 16) =     11.14162  eV     2   --> G_4            
     e( 17 - 18) =     13.00835  eV     2   --> G_3            
     e( 17 - 18) =     13.00835  eV     2   --> G_4            
     e( 19 - 20) =     14.24697  eV     2   --> G_3            
     e( 19 - 20) =     14.24697  eV     2   --> G_4            
     e( 21 - 22) =     15.46312  eV     2   --> G_3            
     e( 21 - 22) =     15.46312  eV     2   --> G_4            
     e( 23 - 24) =     17.66139  eV     2   --> G_3            
     e( 23 - 24) =     17.66139  eV     2   --> G_4            
     e( 25 - 26) =     18.34838  eV     2   --> G_3            
     e( 25 - 26) =     18.34838  eV     2   --> G_4            
     e( 27 - 28) =     19.07098  eV     2   --> G_3            
     e( 27 - 28) =     19.07098  eV     2   --> G_4            
     e( 29 - 30) =     23.61278  eV     2   --> G_3            
     e( 29 - 30) =     23.61278  eV     2   --> G_4            

 **************************************************************************

 **************************************************************************

                    xk=(   0.20000,   0.05000,   0.05000  )

     Band symmetry, C_s (m)     double point group:

     e(  1 -  2) =     -5.50177  eV     2   --> G_3            
     e(  1 -  2) =     -5.50177  eV     2   --> G_4            
     e(  3 -  4) =      5.13441  eV     2   --> G_3            
     e(  3 -  4) =      5.13441  eV     2   --> G_4            
     e(  5 -  6) =      5.78736  eV     2   --> G_3            
     e(  5 -  6) =      5.78736  eV     2   --> G_4            
     e(  7 -  8) =      5.93183  eV     2   --> G_3            
     e(  7 -  8) =      5.93183  eV     2   --> G_4            
     e(  9 - 10) =      8.67911  eV     2   --> G_3            
     e(  9 - 10) =      8.67911  eV     2   --> G_4            
     e( 11 - 12) =      9.56938  eV     2   --> G_3            
     e( 11 - 12) =      9.56938  eV     2   --> G_4            
     e( 13 - 14) =      9.74920  eV     2   --> G_3            
     e( 13 - 14) =      9.74920  eV     2   --> G_4            
     e( 15 - 16) =     10.93894  eV     2   --> G_3            
     e( 15 - 16) =     10.93894  eV     2   --> G_4            
     e( 17 - 18) =     13.14540  eV     2   --> G_3            
     e( 17 - 18) =     13.14540  eV     2   --> G_4            
     e( 19 - 20) =     14.19989  eV     2   --> G_3            
     e( 19 - 20) =     14.19989  eV     2   --> G_4            
     e( 21 - 22) =     15.20907  eV     2   --> G_3            
     e( 21 - 22) =     15.20907  eV     2   --> G_4            
     e( 23 - 24) =     17.64350  eV     2   --> G_3            
     e( 23 - 24) =     17.64350  eV     2   --> G_4            
     e( 25 - 26) =     18.18034  eV     2   --> G_3            
     e( 25 - 26) =     18.18034  eV     2   --> G_4            
     e( 27 - 28) =     18.77705  eV     2   --> G_3            
     e( 27 - 28) =     18.77705  eV     2   --> G_4            
     e( 29 - 30) =     23.19620  eV     2   --> G_3            
     e( 29 - 30) =     23.19620  eV     2   --> G_4            

 **************************************************************************

 **************************************************************************

                    xk=(   0.16667,   0.04167,   0.04167  )

     Band symmetry, C_s (m)     double point group:

     e(  1 -  2) =     -5.56250  eV     2   --> G_3            
     e(  1 -  2) =     -5.56250  eV     2   --> G_4            
     e(  3 -  4) =      5.43786  eV     2   --> G_3            
     e(  3 -  4) =      5.43786  eV     2   --> G_4            
     e(  5 -  6) =      5.93419  eV     2   --> G_3            
     e(  5 -  6) =      5.93419  eV     2   --> G_4            
     e(  7 -  8) =      6.05838  eV     2   --> G_3            
     e(  7 -  8) =      6.05838  eV     2   --> G_4            
     e(  9 - 10) =      8.74844  eV     2   --> G_3            
     e(  9 - 10) =      8.74844  eV     2   --> G_4            
     e( 11 - 12) =      9.42297  eV     2   --> G_3            
     e( 11 - 12) =      9.42297  eV     2   --> G_4            
     e( 13 - 14) =      9.53785  eV     2   --> G_3            
     e( 13 - 14) =      9.53785  eV     2   --> G_4            
     e( 15 - 16) =     10.69510  eV     2   --> G_3            
     e( 15 - 16) =     10.69510  eV     2   --> G_4            
     e( 17 - 18) =     13.34430  eV     2   --> G_3            
     e( 17 - 18) =     13.34430  eV     2   --> G_4            
     e( 19 - 20) =     14.16545  eV     2   --> G_3            
     e( 19 - 20) =     14.16545  eV     2   --> G_4            
     e( 21 - 22) =     14.97965  eV     2   --> G_3            
     e( 21 - 22) =     14.97965  eV     2   --> G_4            
     e( 23 - 24) =     17.64083  eV     2   --> G_3            
     e( 23 - 24) =     17.64083  eV     2   --> G_4            
     e( 25 - 26) =     18.03421  eV     2   --> G_3            
     e( 25 - 26) =     18.03421  eV     2   --> G_4            
     e( 27 - 28) =     18.49976  eV     2   --> G_3            
     e( 27 - 28) =     18.49976  eV     2   --> G_4            
     e( 29 - 30) =     22.82236  eV     2   --> G_3            
     e( 29 - 30) =     22.82236  eV     2   --> G_4            

 **************************************************************************

 **************************************************************************

                    xk=(   0.13333,   0.03333,   0.03333  )

     Band symmetry, C_s (m)     double point group:

     e(  1 -  2) =     -5.61227  eV     2   --> G_3            
     e(  1 -  2) =     -5.61227  eV     2   --> G_4            
     e(  3 -  4) =      5.72251  eV     2   --> G_3            
     e(  3 -  4) =      5.72251  eV     2   --> G_4            
     e(  5 -  6) =      6.07111  eV     2   --> G_3            
     e(  5 -  6) =      6.07111  eV     2   --> G_4            
     e(  7 -  8) =      6.16790  eV     2   --> G_3            
     e(  7 -  8) =      6.16790  eV     2   --> G_4            
     e(  9 - 10) =      8.81172  eV     2   --> G_3            
     e(  9 - 10) =      8.81172  eV     2   --> G_4            
     e( 11 - 12) =      9.28437  eV     2   --> G_3            
     e( 11 - 12) =      9.28437  eV     2   --> G_4            
     e( 13 - 14) =      9.34669  eV     2   --> G_3            
     e( 13 - 14) =      9.34669  eV     2   --> G_4            
     e( 15 - 16) =     10.45026  eV     2   --> G_3            
     e( 15 - 16) =     10.45026  eV     2   --> G_4            
     e( 17 - 18) =     13.56357  eV     2   --> G_3            
     e( 17 - 18) =     13.56357  eV     2   --> G_4            
     e( 19 - 20) =     14.14115  eV     2   --> G_3            
     e( 19 - 20) =     14.14115  eV     2   --> G_4            
     e( 21 - 22) =     14.78139  eV     2   --> G_3            
     e( 21 - 22) =     14.78139  eV     2   --> G_4            
     e( 23 - 24) =     17.64821  eV     2   --> G_3            
     e( 23 - 24) =     17.64821  eV     2   --> G_4            
     e( 25 - 26) =     17.91182  eV     2   --> G_3            
     e( 25 - 26) =     17.91182  eV     2   --> G_4            
     e( 27 - 28) =     18.24505  eV     2   --> G_3            
     e( 27 - 28) =     18.24505  eV     2   --> G_4            
     e( 29 - 30) =     22.50034  eV     2   --> G_3            
     e( 29 - 30) =     22.50034  eV     2   --> G_4            

 **************************************************************************

 **************************************************************************

                    xk=(   0.10000,   0.02500,   0.02500  )

     Band symmetry, C_s (m)     double point group:

     e(  1 -  2) =     -5.65103  eV     2   --> G_3            
     e(  1 -  2) =     -5.65103  eV     2   --> G_4            
     e(  3 -  4) =      5.97648  eV     2   --> G_3            
     e(  3 -  4) =      5.97648  eV     2   --> G_4            
     e(  5 -  6) =      6.19139  eV     2   --> G_3            
     e(  5 -  6) =      6.19139  eV     2   --> G_4            
     e(  7 -  8) =      6.25810  eV     2   --> G_3            
     e(  7 -  8) =      6.25810  eV     2   --> G_4            
     e(  9 - 10) =      8.86546  eV     2   --> G_3            
     e(  9 - 10) =      8.86546  eV     2   --> G_4            
     e( 11 - 12) =      9.15536  eV     2   --> G_3            
     e( 11 - 12) =      9.15536  eV     2   --> G_4            
     e( 13 - 14) =      9.18452  eV     2   --> G_3            
     e( 13 - 14) =      9.18452  eV     2   --> G_4            
     e( 15 - 16) =     10.23268  eV     2   --> G_3            
     e( 15 - 16) =     10.23268  eV     2   --> G_4            
     e( 17 - 18) =     13.77331  eV     2   --> G_3            
     e( 17 - 18) =     13.77331  eV     2   --> G_4            
     e( 19 - 20) =     14.12476  eV     2   --> G_3            
     e( 19 - 20) =     14.12476  eV     2   --> G_4            
     e( 21 - 22) =     14.62011  eV     2   --> G_3            
     e( 21 - 22) =     14.62011  eV     2   --> G_4            
     e( 23 - 24) =     17.66076  eV     2   --> G_3            
     e( 23 - 24) =     17.66076  eV     2   --> G_4            
     e( 25 - 26) =     17.81478  eV     2   --> G_3            
     e( 25 - 26) =     17.81478  eV     2   --> G_4            
     e( 27 - 28) =     18.02227  eV     2   --> G_3            
     e( 27 - 28) =     18.02227  eV     2   --> G_4            
     e( 29 - 30) =     22.23864  eV     2   --> G_3            
     e( 29 - 30) =     22.23864  eV     2   --> G_4            

 **************************************************************************

 **************************************************************************

                    xk=(   0.06667,   0.01667,   0.01667  )

     Band symmetry, C_s (m)     double point group:

     e(  1 -  2) =     -5.67874  eV     2   --> G_3            
     e(  1 -  2) =     -5.67874  eV     2   --> G_4            
     e(  3 -  4) =      6.18174  eV     2   --> G_3            
     e(  3 -  4) =      6.18174  eV     2   --> G_4            
     e(  5 -  6) =      6.28710  eV     2   --> G_3            
     e(  5 -  6) =      6.28710  eV     2   --> G_4            
     e(  7 -  8) =      6.32721  eV     2   --> G_3            
     e(  7 -  8) =      6.32721  eV     2   --> G_4            
     e(  9 - 10) =      8.90586  eV     2   --> G_3            
     e(  9 - 10) =      8.90586  eV     2   --> G_4            
     e( 11 - 12) =      9.04209  eV     2   --> G_3            
     e( 11 - 12) =      9.04209  eV     2   --> G_4            
     e( 13 - 14) =      9.06170  eV     2   --> G_3            
     e( 13 - 14) =      9.06170  eV     2   --> G_4            
     e( 15 - 16) =     10.06337  eV     2   --> G_3            
     e( 15 - 16) =     10.06337  eV     2   --> G_4            
     e( 17 - 18) =     13.94834  eV     2   --> G_3            
     e( 17 - 18) =     13.94834  eV     2   --> G_4            
     e( 19 - 20) =     14.11447  eV     2   --> G_3            
     e( 19 - 20) =     14.11447  eV     2   --> G_4            
     e( 21 - 22) =     14.50083  eV     2   --> G_3            
     e( 21 - 22) =     14.50083  eV     2   --> G_4            
     e( 23 - 24) =     17.67380  eV     2   --> G_3            
     e( 23 - 24) =     17.67380  eV     2   --> G_4            
     e( 25 - 26) =     17.74444  eV     2   --> G_3            
     e( 25 - 26) =     17.74444  eV     2   --> G_4            
     e( 27 - 28) =     17.84476  eV     2   --> G_3            
     e( 27 - 28) =     17.84476  eV     2   --> G_4            
     e( 29 - 30) =     22.04504  eV     2   --> G_3            
     e( 29 - 30) =     22.04504  eV     2   --> G_4            

 **************************************************************************

 **************************************************************************

                    xk=(   0.03333,   0.00833,   0.00833  )

     Band symmetry, C_s (m)     double point group:

     e(  1 -  2) =     -5.69538  eV     2   --> G_3            
     e(  1 -  2) =     -5.69538  eV     2   --> G_4            
     e(  3 -  4) =      6.30919  eV     2   --> G_3            
     e(  3 -  4) =      6.30919  eV     2   --> G_4            
     e(  5 -  6) =      6.35605  eV     2   --> G_3            
     e(  5 -  6) =      6.35605  eV     2   --> G_4            
     e(  7 -  8) =      6.37352  eV     2   --> G_3            
     e(  7 -  8) =      6.37352  eV     2   --> G_4            
     e(  9 - 10) =      8.92594  eV     2   --> G_3            
     e(  9 - 10) =      8.92594  eV     2   --> G_4            
     e( 11 - 12) =      8.96775  eV     2   --> G_3            
     e( 11 - 12) =      8.96775  eV     2   --> G_4            
     e( 13 - 14) =      8.98259  eV     2   --> G_3            
     e( 13 - 14) =      8.98259  eV     2   --> G_4            
     e( 15 - 16) =      9.95682  eV     2   --> G_3            
     e( 15 - 16) =      9.95682  eV     2   --> G_4            
     e( 17 - 18) =     14.06563  eV     2   --> G_3            
     e( 17 - 18) =     14.06563  eV     2   --> G_4            
     e( 19 - 20) =     14.10887  eV     2   --> G_3            
     e( 19 - 20) =     14.10887  eV     2   --> G_4            
     e( 21 - 22) =     14.42751  eV     2   --> G_3            
     e( 21 - 22) =     14.42751  eV     2   --> G_4            
     e( 23 - 24) =     17.68277  eV     2   --> G_3            
     e( 23 - 24) =     17.68277  eV     2   --> G_4            
     e( 25 - 26) =     17.70210  eV     2   --> G_3            
     e( 25 - 26) =     17.70210  eV     2   --> G_4            
     e( 27 - 28) =     17.72887  eV     2   --> G_3            
     e( 27 - 28) =     17.72887  eV     2   --> G_4            
     e( 29 - 30) =     21.92597  eV     2   --> G_3            
     e( 29 - 30) =     21.92597  eV     2   --> G_4            

 **************************************************************************

 **************************************************************************

                    xk=(   0.00000,   0.00000,   0.00000  )

     double point group O_h (m-3m) 
     there are 16 classes and  6 irreducible representations
     the character table:

       E     -E    8C3   -8C3   3C2  6C4   -6C4   6C2' i     -i    8S6   -8S6 
                               -3C2              -6C2'                        
G_6+   2.00 -2.00  1.00 -1.00  0.00  1.41 -1.41  0.00  2.00 -2.00  1.00 -1.00
G_7+   2.00 -2.00  1.00 -1.00  0.00 -1.41  1.41  0.00  2.00 -2.00  1.00 -1.00
G_8+   4.00 -4.00 -1.00  1.00  0.00  0.00  0.00  0.00  4.00 -4.00 -1.00  1.00
G_6-   2.00 -2.00  1.00 -1.00  0.00  1.41 -1.41  0.00 -2.00  2.00 -1.00  1.00
G_7-   2.00 -2.00  1.00 -1.00  0.00 -1.41  1.41  0.00 -2.00  2.00 -1.00  1.00
G_8-   4.00 -4.00 -1.00  1.00  0.00  0.00  0.00  0.00 -4.00  4.00  1.00 -1.00

        3s_h 6S4   -6S4   6s_d
       -3s_h             -6s_d
G_6+   0.00  1.41 -1.41  0.00
G_7+   0.00 -1.41  1.41  0.00
G_8+   0.00  0.00  0.00  0.00
G_6-   0.00 -1.41  1.41  0.00
G_7-   0.00  1.41 -1.41  0.00
G_8-   0.00  0.00  0.00  0.00

     the symmetry operations in each class and the name of the first element:

     E             1
                                                                 
     -E           -1
                                                                 
     8C3          17   19   20   18   24   21   22   23
                                                                 
     -8C3        -17  -19  -20  -18  -24  -21  -22  -23
                                                                 
      3C2 -3C2     2   -2    4   -4    3   -3
                                                                 
     6C4           7    8   15   16   12   11
                                                                 
     -6C4         -7   -8  -15  -16  -12  -11
                                                                 
      6C2'-6C2'    5   -5   -6    6   14  -13  -14   13   10   -9  -10    9
                                                                 
     i            25
                                                                 
     -i          -25
                                                                 
     8S6          41   43   44   42   48   45   46   47
                                                                 
     -8S6        -41  -43  -44  -42  -48  -45  -46  -47
                                                                 
      3s_h-3s_h   26  -26   28  -28   27  -27
                                                                 
     6S4          31   32   39   40   36   35
                                                                 
     -6S4        -31  -32  -39  -40  -36  -35
                                                                 
      6s_d-6s_d   29  -29  -30   30   38  -37  -38   37   34  -33  -34   33
                                                                 

     Band symmetry, O_h (m-3m)  double point group:

     e(  1 -  2) =     -5.70092  eV     2   --> G_6+           
     e(  3 -  4) =      6.34237  eV     2   --> G_7+           
     e(  5 -  8) =      6.39077  eV     4   --> G_8+           
     e(  9 - 10) =      8.91936  eV     2   --> G_6-           
     e( 11 - 14) =      8.95444  eV     4   --> G_8-           
     e( 15 - 16) =      9.92060  eV     2   --> G_7-           
     e( 17 - 20) =     14.10710  eV     4   --> G_8-           
     e( 21 - 22) =     14.40277  eV     2   --> G_6+           
     e( 23 - 24) =     17.68028  eV     2   --> G_7+           
     e( 25 - 28) =     17.69099  eV     4   --> G_8+           
     e( 29 - 30) =     21.88577  eV     2   --> G_7-           

 **************************************************************************

     BANDS        :   1m 0.11s CPU   1m 8.38s WALL


   This run was terminated on:   0:26:42   1Jun2023            

=------------------------------------------------------------------------------=
   JOB DONE.
=------------------------------------------------------------------------------=
