
     Program PWSCF v.7.2 starts on 27May2023 at 15: 8:50 

     This program is part of the open-source Quantum ESPRESSO suite
     for quantum simulation of materials; please cite
         "P. Giannozzi et al., J. Phys.:Condens. Matter 21 395502 (2009);
         "P. Giannozzi et al., J. Phys.:Condens. Matter 29 465901 (2017);
         "P. Giannozzi et al., J. Chem. Phys. 152 154105 (2020);
          URL http://www.quantum-espresso.org", 
     in publications or presentations arising from this work. More details at
     http://www.quantum-espresso.org/quote

     Parallel version (MPI), running on     1 processors

     MPI processes distributed on     1 nodes
     303 MiB available memory on the printing compute node when the environment starts

     Reading input from b2n2.ecut.in

     Current dimensions of program PWSCF are:
     Max number of different atomic species (ntypx) = 10
     Max number of k-points (npk) =  40000
     Max angular momentum in pseudopotentials (lmaxx) =  4

     Subspace diagonalization in iterative solution of the eigenvalue problem:
     a serial algorithm will be used


     G-vector sticks info
     --------------------
     sticks:   dense  smooth     PW     G-vecs:    dense   smooth      PW
     Sum        1565    1565    431               137031   137031   20091

     Using Slab Decomposition



     bravais-lattice index     =            8
     lattice parameter (alat)  =       8.6360  a.u.
     unit-cell volume          =     770.9972 (a.u.)^3
     number of atoms/cell      =            4
     number of atomic types    =            2
     number of electrons       =        16.00
     number of Kohn-Sham states=            8
     kinetic-energy cutoff     =     120.0000  Ry
     charge density cutoff     =     480.0000  Ry
     scf convergence threshold =      1.0E-08
     mixing beta               =       0.7000
     number of iterations used =            8  plain     mixing
     Exchange-correlation= PBE
                           (   1   4   3   4   0   0   0)

     celldm(1)=   8.636048  celldm(2)=   0.547046  celldm(3)=   2.188184
     celldm(4)=   0.000000  celldm(5)=   0.000000  celldm(6)=   0.000000

     crystal axes: (cart. coord. in units of alat)
               a(1) = (   1.000000   0.000000   0.000000 )  
               a(2) = (   0.000000   0.547046   0.000000 )  
               a(3) = (   0.000000   0.000000   2.188184 )  

     reciprocal axes: (cart. coord. in units 2 pi/alat)
               b(1) = (  1.000000  0.000000  0.000000 )  
               b(2) = (  0.000000  1.828000  0.000000 )  
               b(3) = (  0.000000  0.000000  0.457000 )  


     PseudoPot. # 1 for B  read from file:
     ../B_pbe_v1.01.uspp.F.UPF
     MD5 check sum: d081ebb89d0c768e112975f650467a00
     Pseudo is Ultrasoft + core correction, Zval =  3.0
     Generated by new atomic code, or converted to UPF format
     Using radial grid of  781 points,  4 beta functions with: 
                l(1) =   0
                l(2) =   0
                l(3) =   1
                l(4) =   1
     Q(r) pseudized with  8 coefficients,  rinner =    1.100   1.100   1.100


     PseudoPot. # 2 for N  read from file:
     ../N.oncvpsp.upf
     MD5 check sum: 563d65bfb082928f0c9eb97172f6c357
     Pseudo is Norm-conserving + core correction, Zval =  5.0
     Generated using ONCVPSP code by D. R. Hamann
     Using radial grid of 1058 points,  4 beta functions with: 
                l(1) =   0
                l(2) =   0
                l(3) =   1
                l(4) =   1

     atomic species   valence    mass     pseudopotential
        B              3.00    10.81100     B ( 1.00)
        N              5.00    14.00670     N ( 1.00)

      2 Sym. Ops. (no inversion) found



   Cartesian axes

     site n.     atom                  positions (alat units)
         1           B   tau(   1) = (   0.1859956   0.4093249   0.0000000  )
         2           B   tau(   2) = (   0.8161926   0.4093249   0.0000000  )
         3           N   tau(   3) = (   0.3435449   0.1367615   0.0000000  )
         4           N   tau(   4) = (   0.6586433   0.1367615   0.0000000  )

     number of k points=    13
                       cart. coord. in units 2pi/alat
        k(    1) = (   0.0000000   0.0000000   0.0000000), wk =   0.0800000
        k(    2) = (   0.0000000   0.3656000   0.0000000), wk =   0.1600000
        k(    3) = (   0.0000000   0.7312000   0.0000000), wk =   0.1600000
        k(    4) = (   0.2000000   0.0000000   0.0000000), wk =   0.1600000
        k(    5) = (   0.2000000   0.3656000   0.0000000), wk =   0.1600000
        k(    6) = (   0.2000000   0.7312000   0.0000000), wk =   0.1600000
        k(    7) = (   0.4000000   0.0000000   0.0000000), wk =   0.1600000
        k(    8) = (   0.4000000   0.3656000   0.0000000), wk =   0.1600000
        k(    9) = (   0.4000000   0.7312000   0.0000000), wk =   0.1600000
        k(   10) = (  -0.2000000   0.3656000   0.0000000), wk =   0.1600000
        k(   11) = (  -0.2000000   0.7312000   0.0000000), wk =   0.1600000
        k(   12) = (  -0.4000000   0.3656000   0.0000000), wk =   0.1600000
        k(   13) = (  -0.4000000   0.7312000   0.0000000), wk =   0.1600000

     Dense  grid:   137031 G-vectors     FFT dimensions: (  64,  36, 135)

     Estimated max dynamical RAM per process >     215.22 MB

     Check: negative core charge=   -0.000006

     Initial potential from superposition of free atoms

     starting charge      15.9994, renormalised to      16.0000

     negative rho (up, down):  6.029E-07 0.000E+00
     Starting wfcs are   16 randomized atomic wfcs

     total cpu time spent up to now is        4.8 secs

     Self-consistent Calculation

     iteration #  1     ecut=   120.00 Ry     beta= 0.70
     Davidson diagonalization with overlap
     ethr =  1.00E-02,  avg # of iterations =  2.0

     negative rho (up, down):  4.167E-08 0.000E+00

     total cpu time spent up to now is        9.9 secs

     total energy              =     -54.52619272 Ry
     estimated scf accuracy    <       0.46452885 Ry

     iteration #  2     ecut=   120.00 Ry     beta= 0.70
     Davidson diagonalization with overlap
     ethr =  2.90E-03,  avg # of iterations =  3.4

     negative rho (up, down):  1.242E-08 0.000E+00

     total cpu time spent up to now is       15.6 secs

     total energy              =     -54.61435784 Ry
     estimated scf accuracy    <       0.09730632 Ry

     iteration #  3     ecut=   120.00 Ry     beta= 0.70
     Davidson diagonalization with overlap
     ethr =  6.08E-04,  avg # of iterations =  2.6

     negative rho (up, down):  1.855E-08 0.000E+00

     total cpu time spent up to now is       20.6 secs

     total energy              =     -54.63278971 Ry
     estimated scf accuracy    <       0.00276651 Ry

     iteration #  4     ecut=   120.00 Ry     beta= 0.70
     Davidson diagonalization with overlap
     ethr =  1.73E-05,  avg # of iterations =  5.4

     negative rho (up, down):  7.542E-08 0.000E+00

     total cpu time spent up to now is       28.0 secs

     total energy              =     -54.63381215 Ry
     estimated scf accuracy    <       0.00272237 Ry

     iteration #  5     ecut=   120.00 Ry     beta= 0.70
     Davidson diagonalization with overlap
     ethr =  1.70E-05,  avg # of iterations =  3.5

     negative rho (up, down):  1.568E-07 0.000E+00

     total cpu time spent up to now is       33.4 secs

     total energy              =     -54.63462544 Ry
     estimated scf accuracy    <       0.00016508 Ry

     iteration #  6     ecut=   120.00 Ry     beta= 0.70
     Davidson diagonalization with overlap
     ethr =  1.03E-06,  avg # of iterations =  3.2

     negative rho (up, down):  1.726E-07 0.000E+00

     total cpu time spent up to now is       38.2 secs

     total energy              =     -54.63463634 Ry
     estimated scf accuracy    <       0.00003505 Ry

     iteration #  7     ecut=   120.00 Ry     beta= 0.70
     Davidson diagonalization with overlap
     ethr =  2.19E-07,  avg # of iterations =  5.5

     negative rho (up, down):  1.692E-07 0.000E+00

     total cpu time spent up to now is       44.8 secs

     total energy              =     -54.63465406 Ry
     estimated scf accuracy    <       0.00001456 Ry

     iteration #  8     ecut=   120.00 Ry     beta= 0.70
     Davidson diagonalization with overlap
     ethr =  9.10E-08,  avg # of iterations =  3.7

     negative rho (up, down):  1.672E-07 0.000E+00

     total cpu time spent up to now is       49.8 secs

     total energy              =     -54.63465742 Ry
     estimated scf accuracy    <       0.00000004 Ry

     iteration #  9     ecut=   120.00 Ry     beta= 0.70
     Davidson diagonalization with overlap
     ethr =  2.38E-10,  avg # of iterations = 11.8

     negative rho (up, down):  1.660E-07 0.000E+00

     total cpu time spent up to now is       66.4 secs

     total energy              =     -54.63465801 Ry
     estimated scf accuracy    <       0.00000138 Ry

     iteration # 10     ecut=   120.00 Ry     beta= 0.70
     Davidson diagonalization with overlap
     ethr =  2.38E-10,  avg # of iterations =  6.3

     negative rho (up, down):  1.655E-07 0.000E+00

     total cpu time spent up to now is       74.0 secs

     total energy              =     -54.63465797 Ry
     estimated scf accuracy    <       0.00000027 Ry

     iteration # 11     ecut=   120.00 Ry     beta= 0.70
     Davidson diagonalization with overlap
     ethr =  2.38E-10,  avg # of iterations =  5.3

     negative rho (up, down):  1.652E-07 0.000E+00

     total cpu time spent up to now is       80.8 secs

     End of self-consistent calculation

          k = 0.0000 0.0000 0.0000 ( 17103 PWs)   bands (ev):

   -21.7711 -16.0752 -11.7996  -7.9700  -7.1302  -4.2568  -3.6095  -2.9672

          k = 0.0000 0.3656 0.0000 ( 17083 PWs)   bands (ev):

   -21.2963 -15.6904 -11.4097  -9.1783  -7.2842  -5.9339  -3.5150  -2.9115

          k = 0.0000 0.7312 0.0000 ( 17098 PWs)   bands (ev):

   -20.2947 -14.8705 -12.0964 -10.4726  -8.2723  -5.6903  -4.6830  -1.2443

          k = 0.2000 0.0000 0.0000 ( 17092 PWs)   bands (ev):

   -21.7231 -16.4439 -11.0242  -7.8065  -7.0386  -4.4325  -4.1826  -3.9528

          k = 0.2000 0.3656 0.0000 ( 17107 PWs)   bands (ev):

   -21.2478 -16.0423 -10.7169  -9.0824  -7.1361  -6.1568  -4.0746  -3.4578

          k = 0.2000 0.7312 0.0000 ( 17114 PWs)   bands (ev):

   -20.2453 -15.1807 -12.0145  -9.9620  -8.5697  -5.6098  -4.4445  -1.6125

          k = 0.4000 0.0000 0.0000 ( 17150 PWs)   bands (ev):

   -21.6402 -16.9278  -9.5020  -7.4532  -6.8637  -5.7584  -5.0435  -4.7368

          k = 0.4000 0.3656 0.0000 ( 17119 PWs)   bands (ev):

   -21.1640 -16.5109  -9.5063  -8.8317  -6.8270  -6.5510  -5.2437  -4.2543

          k = 0.4000 0.7312 0.0000 ( 17098 PWs)   bands (ev):

   -20.1599 -15.6091 -11.8688  -9.1466  -9.0030  -5.4635  -4.2054  -2.0866

          k =-0.2000 0.3656 0.0000 ( 17107 PWs)   bands (ev):

   -21.2478 -16.0423 -10.7169  -9.0824  -7.1361  -6.1568  -4.0746  -3.4578

          k =-0.2000 0.7312 0.0000 ( 17114 PWs)   bands (ev):

   -20.2453 -15.1807 -12.0145  -9.9620  -8.5697  -5.6098  -4.4445  -1.6125

          k =-0.4000 0.3656 0.0000 ( 17119 PWs)   bands (ev):

   -21.1640 -16.5109  -9.5063  -8.8317  -6.8270  -6.5510  -5.2437  -4.2543

          k =-0.4000 0.7312 0.0000 ( 17098 PWs)   bands (ev):

   -20.1599 -15.6091 -11.8688  -9.1466  -9.0030  -5.4635  -4.2054  -2.0866

     highest occupied level (ev):    -1.2443

!    total energy              =     -54.63465803 Ry
     estimated scf accuracy    <          2.4E-10 Ry

     The total energy is the sum of the following terms:
     one-electron contribution =    -175.87288539 Ry
     hartree contribution      =      91.91713674 Ry
     xc contribution           =     -18.40034071 Ry
     ewald contribution        =      47.72143132 Ry

     convergence has been achieved in  11 iterations

     Writing all to output data dir ./outdir/b2n2.save/

     init_run     :      4.56s CPU      4.66s WALL (       1 calls)
     electrons    :     74.96s CPU     76.07s WALL (       1 calls)

     Called by init_run:
     wfcinit      :      2.94s CPU      2.97s WALL (       1 calls)
     potinit      :      0.47s CPU      0.48s WALL (       1 calls)
     hinit0       :      0.97s CPU      0.99s WALL (       1 calls)

     Called by electrons:
     c_bands      :     64.72s CPU     64.94s WALL (      11 calls)
     sum_band     :      7.44s CPU      7.86s WALL (      11 calls)
     v_of_rho     :      1.68s CPU      1.72s WALL (      12 calls)
     newd         :      1.01s CPU      1.46s WALL (      12 calls)
     mix_rho      :      0.29s CPU      0.31s WALL (      11 calls)

     Called by c_bands:
     init_us_2    :      1.20s CPU      1.22s WALL (     299 calls)
     init_us_2:cp :      1.20s CPU      1.21s WALL (     299 calls)
     cegterg      :     62.89s CPU     63.11s WALL (     143 calls)

     Called by *egterg:
     cdiaghg      :      0.11s CPU      0.11s WALL (     829 calls)
     h_psi        :     45.85s CPU     46.01s WALL (     842 calls)
     s_psi        :      5.41s CPU      5.43s WALL (     842 calls)
     g_psi        :      0.23s CPU      0.24s WALL (     686 calls)

     Called by h_psi:
     h_psi:calbec :      5.61s CPU      5.63s WALL (     842 calls)
     vloc_psi     :     34.67s CPU     34.80s WALL (     842 calls)
     add_vuspsi   :      5.37s CPU      5.39s WALL (     842 calls)

     General routines
     calbec       :      6.93s CPU      6.95s WALL (     985 calls)
     fft          :      0.96s CPU      0.97s WALL (     132 calls)
     ffts         :      0.06s CPU      0.06s WALL (      11 calls)
     fftw         :     32.22s CPU     32.34s WALL (   10876 calls)

     Parallel routines

     PWSCF        :   1m19.62s CPU   1m20.88s WALL


   This run was terminated on:  15:10:11  27May2023            

=------------------------------------------------------------------------------=
   JOB DONE.
=------------------------------------------------------------------------------=
