
     Program PWSCF v.7.2 starts on 27May2023 at 15:49:50 

     This program is part of the open-source Quantum ESPRESSO suite
     for quantum simulation of materials; please cite
         "P. Giannozzi et al., J. Phys.:Condens. Matter 21 395502 (2009);
         "P. Giannozzi et al., J. Phys.:Condens. Matter 29 465901 (2017);
         "P. Giannozzi et al., J. Chem. Phys. 152 154105 (2020);
          URL http://www.quantum-espresso.org", 
     in publications or presentations arising from this work. More details at
     http://www.quantum-espresso.org/quote

     Parallel version (MPI), running on     1 processors

     MPI processes distributed on     1 nodes
     100 MiB available memory on the printing compute node when the environment starts

     Reading input from 1.b2n2.scf.in

     Current dimensions of program PWSCF are:
     Max number of different atomic species (ntypx) = 10
     Max number of k-points (npk) =  40000
     Max angular momentum in pseudopotentials (lmaxx) =  4

     Subspace diagonalization in iterative solution of the eigenvalue problem:
     a serial algorithm will be used


     G-vector sticks info
     --------------------
     sticks:   dense  smooth     PW     G-vecs:    dense   smooth      PW
     Sum        1043    1043    293                74509    74509   11321

     Using Slab Decomposition



     bravais-lattice index     =            8
     lattice parameter (alat)  =       8.6360  a.u.
     unit-cell volume          =     770.9972 (a.u.)^3
     number of atoms/cell      =            4
     number of atomic types    =            2
     number of electrons       =        16.00
     number of Kohn-Sham states=           20
     kinetic-energy cutoff     =      80.0000  Ry
     charge density cutoff     =     320.0000  Ry
     scf convergence threshold =      1.0E-08
     mixing beta               =       0.7000
     number of iterations used =            8  plain     mixing
     Exchange-correlation= PBE
                           (   1   4   3   4   0   0   0)

     celldm(1)=   8.636048  celldm(2)=   0.547046  celldm(3)=   2.188184
     celldm(4)=   0.000000  celldm(5)=   0.000000  celldm(6)=   0.000000

     crystal axes: (cart. coord. in units of alat)
               a(1) = (   1.000000   0.000000   0.000000 )  
               a(2) = (   0.000000   0.547046   0.000000 )  
               a(3) = (   0.000000   0.000000   2.188184 )  

     reciprocal axes: (cart. coord. in units 2 pi/alat)
               b(1) = (  1.000000  0.000000  0.000000 )  
               b(2) = (  0.000000  1.828000  0.000000 )  
               b(3) = (  0.000000  0.000000  0.457000 )  


     PseudoPot. # 1 for B  read from file:
     ../B_pbe_v1.01.uspp.F.UPF
     MD5 check sum: d081ebb89d0c768e112975f650467a00
     Pseudo is Ultrasoft + core correction, Zval =  3.0
     Generated by new atomic code, or converted to UPF format
     Using radial grid of  781 points,  4 beta functions with: 
                l(1) =   0
                l(2) =   0
                l(3) =   1
                l(4) =   1
     Q(r) pseudized with  8 coefficients,  rinner =    1.100   1.100   1.100


     PseudoPot. # 2 for N  read from file:
     ../N.oncvpsp.upf
     MD5 check sum: 563d65bfb082928f0c9eb97172f6c357
     Pseudo is Norm-conserving + core correction, Zval =  5.0
     Generated using ONCVPSP code by D. R. Hamann
     Using radial grid of 1058 points,  4 beta functions with: 
                l(1) =   0
                l(2) =   0
                l(3) =   1
                l(4) =   1

     atomic species   valence    mass     pseudopotential
        B              3.00    10.81100     B ( 1.00)
        N              5.00    14.00670     N ( 1.00)

      2 Sym. Ops. (no inversion) found



   Cartesian axes

     site n.     atom                  positions (alat units)
         1           B   tau(   1) = (   0.1859956   0.4093249   0.0000000  )
         2           B   tau(   2) = (   0.8161926   0.4093249   0.0000000  )
         3           N   tau(   3) = (   0.3435449   0.1367615   0.0000000  )
         4           N   tau(   4) = (   0.6586433   0.1367615   0.0000000  )

     number of k points=    13
                       cart. coord. in units 2pi/alat
        k(    1) = (   0.0000000   0.0000000   0.0000000), wk =   0.0800000
        k(    2) = (   0.0000000   0.3656000   0.0000000), wk =   0.1600000
        k(    3) = (   0.0000000   0.7312000   0.0000000), wk =   0.1600000
        k(    4) = (   0.2000000   0.0000000   0.0000000), wk =   0.1600000
        k(    5) = (   0.2000000   0.3656000   0.0000000), wk =   0.1600000
        k(    6) = (   0.2000000   0.7312000   0.0000000), wk =   0.1600000
        k(    7) = (   0.4000000   0.0000000   0.0000000), wk =   0.1600000
        k(    8) = (   0.4000000   0.3656000   0.0000000), wk =   0.1600000
        k(    9) = (   0.4000000   0.7312000   0.0000000), wk =   0.1600000
        k(   10) = (  -0.2000000   0.3656000   0.0000000), wk =   0.1600000
        k(   11) = (  -0.2000000   0.7312000   0.0000000), wk =   0.1600000
        k(   12) = (  -0.4000000   0.3656000   0.0000000), wk =   0.1600000
        k(   13) = (  -0.4000000   0.7312000   0.0000000), wk =   0.1600000

     Dense  grid:    74509 G-vectors     FFT dimensions: (  50,  27, 108)

     Estimated max dynamical RAM per process >     139.60 MB

     Check: negative core charge=   -0.000004

     Initial potential from superposition of free atoms

     starting charge      15.9994, renormalised to      16.0000

     negative rho (up, down):  3.058E-08 0.000E+00
     Starting wfcs are   16 randomized atomic wfcs +    4 random wfcs

     total cpu time spent up to now is        3.0 secs

     Self-consistent Calculation

     iteration #  1     ecut=    80.00 Ry     beta= 0.70
     Davidson diagonalization with overlap
     ethr =  1.00E-02,  avg # of iterations =  8.6

     negative rho (up, down):  8.805E-08 0.000E+00

     total cpu time spent up to now is       14.9 secs

     total energy              =     -54.53718294 Ry
     estimated scf accuracy    <       0.46676335 Ry

     iteration #  2     ecut=    80.00 Ry     beta= 0.70
     Davidson diagonalization with overlap
     ethr =  2.92E-03,  avg # of iterations =  3.0

     negative rho (up, down):  5.392E-07 0.000E+00

     total cpu time spent up to now is       20.7 secs

     total energy              =     -54.58645624 Ry
     estimated scf accuracy    <       0.13233962 Ry

     iteration #  3     ecut=    80.00 Ry     beta= 0.70
     Davidson diagonalization with overlap
     ethr =  8.27E-04,  avg # of iterations =  2.6

     negative rho (up, down):  1.951E-06 0.000E+00

     total cpu time spent up to now is       26.2 secs

     total energy              =     -54.62549101 Ry
     estimated scf accuracy    <       0.04836768 Ry

     iteration #  4     ecut=    80.00 Ry     beta= 0.70
     Davidson diagonalization with overlap
     ethr =  3.02E-04,  avg # of iterations =  4.2

     negative rho (up, down):  4.419E-06 0.000E+00

     total cpu time spent up to now is       31.4 secs

     total energy              =     -54.63386992 Ry
     estimated scf accuracy    <       0.00037777 Ry

     iteration #  5     ecut=    80.00 Ry     beta= 0.70
     Davidson diagonalization with overlap
     c_bands:  1 eigenvalues not converged
     ethr =  2.36E-06,  avg # of iterations = 13.6

     negative rho (up, down):  6.274E-06 0.000E+00

     total cpu time spent up to now is       43.4 secs

     total energy              =     -54.63416562 Ry
     estimated scf accuracy    <       0.00005041 Ry

     iteration #  6     ecut=    80.00 Ry     beta= 0.70
     Davidson diagonalization with overlap
     ethr =  3.15E-07,  avg # of iterations =  2.8

     negative rho (up, down):  6.362E-06 0.000E+00

     total cpu time spent up to now is       48.8 secs

     total energy              =     -54.63417894 Ry
     estimated scf accuracy    <       0.00000113 Ry

     iteration #  7     ecut=    80.00 Ry     beta= 0.70
     Davidson diagonalization with overlap
     ethr =  7.05E-09,  avg # of iterations =  4.2

     negative rho (up, down):  6.372E-06 0.000E+00

     total cpu time spent up to now is       55.5 secs

     total energy              =     -54.63418008 Ry
     estimated scf accuracy    <       0.00000005 Ry

     iteration #  8     ecut=    80.00 Ry     beta= 0.70
     Davidson diagonalization with overlap
     ethr =  3.34E-10,  avg # of iterations =  2.4

     negative rho (up, down):  6.378E-06 0.000E+00

     total cpu time spent up to now is       61.1 secs

     total energy              =     -54.63418010 Ry
     estimated scf accuracy    <       0.00000001 Ry

     iteration #  9     ecut=    80.00 Ry     beta= 0.70
     Davidson diagonalization with overlap
     ethr =  7.91E-11,  avg # of iterations =  1.5

     negative rho (up, down):  6.376E-06 0.000E+00

     total cpu time spent up to now is       65.9 secs

     End of self-consistent calculation

          k = 0.0000 0.0000 0.0000 (  9333 PWs)   bands (ev):

   -21.7704 -16.0744 -11.7987  -7.9690  -7.1290  -4.2556  -3.6085  -2.9662
     1.3774   2.1568   4.2736   4.5560   4.9149   7.4327   8.3901   9.0069
     9.4475   9.5704   9.6107  10.6592

          k = 0.0000 0.3656 0.0000 (  9307 PWs)   bands (ev):

   -21.2956 -15.6896 -11.4088  -9.1772  -7.2833  -5.9328  -3.5140  -2.9106
     1.3796   3.1718   5.1342   5.5128   5.7166   7.9037   8.6758   9.4278
     9.9204   9.9309  10.4695  11.0493

          k = 0.0000 0.7312 0.0000 (  9342 PWs)   bands (ev):

   -20.2940 -14.8696 -12.0955 -10.4716  -8.2713  -5.6893  -4.6822  -1.2433
     0.3152   5.0794   5.9818   6.0827   7.6026   7.9447   8.6801   9.8139
    10.6975  10.9371  12.2792  12.9238

          k = 0.2000 0.0000 0.0000 (  9305 PWs)   bands (ev):

   -21.7224 -16.4432 -11.0232  -7.8055  -7.0374  -4.4313  -4.1817  -3.9519
     2.1589   2.4222   4.6158   4.7957   5.6959   6.6476   7.5389   7.7535
     8.9251   9.5419  10.2466  10.2654

          k = 0.2000 0.3656 0.0000 (  9302 PWs)   bands (ev):

   -21.2471 -16.0416 -10.7160  -9.0814  -7.1351  -6.1557  -4.0737  -3.4569
     2.1000   3.4388   5.4155   5.4714   6.0240   7.1970   7.5424   9.4039
     9.6749  10.0706  10.1873  11.1067

          k = 0.2000 0.7312 0.0000 (  9314 PWs)   bands (ev):

   -20.2446 -15.1798 -12.0136  -9.9610  -8.5687  -5.6088  -4.4437  -1.6116
     0.7257   4.4331   4.5119   6.2782   7.8900   8.7778   9.5901  10.2566
    10.3472  10.9244  11.3407  12.1898

          k = 0.4000 0.0000 0.0000 (  9314 PWs)   bands (ev):

   -21.6395 -16.9271  -9.5010  -7.4522  -6.8626  -5.7576  -5.0426  -4.7356
     3.2418   3.5397   4.6090   5.3169   5.5682   6.4887   6.5439   7.7315
     7.8470   8.0647  10.9377  11.3049

          k = 0.4000 0.3656 0.0000 (  9310 PWs)   bands (ev):

   -21.1633 -16.5101  -9.5053  -8.8306  -6.8260  -6.5499  -5.2429  -4.2533
     3.3895   4.2564   5.6329   5.6344   5.9357   6.6062   6.8476   7.8835
     8.1471  10.0428  11.3965  11.8470

          k = 0.4000 0.7312 0.0000 (  9291 PWs)   bands (ev):

   -20.1592 -15.6083 -11.8678  -9.1455  -9.0021  -5.4625  -4.2045  -2.0857
     1.4100   3.1321   3.5652   7.0694   8.3178   8.6846   9.3252   9.9294
     9.9485  11.0729  11.5389  12.1093

          k =-0.2000 0.3656 0.0000 (  9302 PWs)   bands (ev):

   -21.2471 -16.0416 -10.7160  -9.0814  -7.1351  -6.1557  -4.0737  -3.4569
     2.1000   3.4388   5.4155   5.4714   6.0240   7.1970   7.5424   9.4039
     9.6749  10.0707  10.1873  11.1067

          k =-0.2000 0.7312 0.0000 (  9314 PWs)   bands (ev):

   -20.2446 -15.1798 -12.0136  -9.9610  -8.5687  -5.6088  -4.4437  -1.6116
     0.7257   4.4331   4.5119   6.2782   7.8900   8.7778   9.5901  10.2565
    10.3472  10.9244  11.3406  12.1899

          k =-0.4000 0.3656 0.0000 (  9310 PWs)   bands (ev):

   -21.1633 -16.5101  -9.5053  -8.8306  -6.8260  -6.5499  -5.2429  -4.2533
     3.3895   4.2564   5.6329   5.6344   5.9357   6.6062   6.8476   7.8835
     8.1471  10.0428  11.3965  11.8470

          k =-0.4000 0.7312 0.0000 (  9291 PWs)   bands (ev):

   -20.1592 -15.6083 -11.8678  -9.1455  -9.0021  -5.4625  -4.2046  -2.0857
     1.4100   3.1321   3.5652   7.0694   8.3178   8.6846   9.3252   9.9294
     9.9485  11.0729  11.5389  12.1093

     highest occupied, lowest unoccupied level (ev):    -1.2433    0.3152

!    total energy              =     -54.63418010 Ry
     estimated scf accuracy    <          5.9E-10 Ry

     The total energy is the sum of the following terms:
     one-electron contribution =    -175.87302076 Ry
     hartree contribution      =      91.91775847 Ry
     xc contribution           =     -18.40034914 Ry
     ewald contribution        =      47.72143132 Ry

     convergence has been achieved in   9 iterations

     Writing all to output data dir ./outdir/b2n2.save/

     init_run     :      2.73s CPU      2.82s WALL (       1 calls)
     electrons    :     61.69s CPU     62.89s WALL (       1 calls)

     Called by init_run:
     wfcinit      :      1.77s CPU      1.80s WALL (       1 calls)
     potinit      :      0.25s CPU      0.26s WALL (       1 calls)
     hinit0       :      0.63s CPU      0.63s WALL (       1 calls)

     Called by electrons:
     c_bands      :     54.61s CPU     55.40s WALL (       9 calls)
     sum_band     :      5.96s CPU      6.19s WALL (       9 calls)
     v_of_rho     :      0.63s CPU      0.65s WALL (      10 calls)
     newd         :      0.47s CPU      0.65s WALL (      10 calls)
     mix_rho      :      0.11s CPU      0.13s WALL (       9 calls)

     Called by c_bands:
     init_us_2    :      0.52s CPU      0.53s WALL (     247 calls)
     init_us_2:cp :      0.52s CPU      0.53s WALL (     247 calls)
     cegterg      :     53.75s CPU     54.53s WALL (     117 calls)

     Called by *egterg:
     cdiaghg      :      0.40s CPU      0.41s WALL (     676 calls)
     h_psi        :     29.22s CPU     29.63s WALL (     689 calls)
     s_psi        :      4.02s CPU      4.10s WALL (     689 calls)
     g_psi        :      0.16s CPU      0.16s WALL (     559 calls)

     Called by h_psi:
     h_psi:calbec :      4.03s CPU      4.07s WALL (     689 calls)
     vloc_psi     :     20.90s CPU     21.19s WALL (     689 calls)
     add_vuspsi   :      4.11s CPU      4.15s WALL (     689 calls)

     General routines
     calbec       :      5.35s CPU      5.41s WALL (     806 calls)
     fft          :      0.51s CPU      0.52s WALL (     110 calls)
     ffts         :      0.02s CPU      0.02s WALL (       9 calls)
     fftw         :     20.83s CPU     21.08s WALL (   16152 calls)

     Parallel routines

     PWSCF        :   1m 4.64s CPU   1m 6.00s WALL


   This run was terminated on:  15:50:56  27May2023            

=------------------------------------------------------------------------------=
   JOB DONE.
=------------------------------------------------------------------------------=
