
     Program PWSCF v.7.2 starts on 27May2023 at 15:50:56 

     This program is part of the open-source Quantum ESPRESSO suite
     for quantum simulation of materials; please cite
         "P. Giannozzi et al., J. Phys.:Condens. Matter 21 395502 (2009);
         "P. Giannozzi et al., J. Phys.:Condens. Matter 29 465901 (2017);
         "P. Giannozzi et al., J. Chem. Phys. 152 154105 (2020);
          URL http://www.quantum-espresso.org", 
     in publications or presentations arising from this work. More details at
     http://www.quantum-espresso.org/quote

     Parallel version (MPI), running on     1 processors

     MPI processes distributed on     1 nodes
     188 MiB available memory on the printing compute node when the environment starts

     Reading input from 2.b2n2.nscf.in

     Current dimensions of program PWSCF are:
     Max number of different atomic species (ntypx) = 10
     Max number of k-points (npk) =  40000
     Max angular momentum in pseudopotentials (lmaxx) =  4

     Atomic positions and unit cell read from directory:
     ./outdir/b2n2.save/


     Subspace diagonalization in iterative solution of the eigenvalue problem:
     a serial algorithm will be used


     G-vector sticks info
     --------------------
     sticks:   dense  smooth     PW     G-vecs:    dense   smooth      PW
     Sum        1043    1043    309                74509    74509   11699

     Using Slab Decomposition



     bravais-lattice index     =            8
     lattice parameter (alat)  =       8.6360  a.u.
     unit-cell volume          =     770.9972 (a.u.)^3
     number of atoms/cell      =            4
     number of atomic types    =            2
     number of electrons       =        16.00
     number of Kohn-Sham states=           20
     kinetic-energy cutoff     =      80.0000  Ry
     charge density cutoff     =     320.0000  Ry
     Exchange-correlation= PBE
                           (   1   4   3   4   0   0   0)

     celldm(1)=   8.636048  celldm(2)=   0.547046  celldm(3)=   2.188184
     celldm(4)=   0.000000  celldm(5)=   0.000000  celldm(6)=   0.000000

     crystal axes: (cart. coord. in units of alat)
               a(1) = (   1.000000   0.000000   0.000000 )  
               a(2) = (   0.000000   0.547046   0.000000 )  
               a(3) = (   0.000000   0.000000   2.188184 )  

     reciprocal axes: (cart. coord. in units 2 pi/alat)
               b(1) = (  1.000000  0.000000  0.000000 )  
               b(2) = (  0.000000  1.828000  0.000000 )  
               b(3) = (  0.000000  0.000000  0.457000 )  


     PseudoPot. # 1 for B  read from file:
     ../B_pbe_v1.01.uspp.F.UPF
     MD5 check sum: d081ebb89d0c768e112975f650467a00
     Pseudo is Ultrasoft + core correction, Zval =  3.0
     Generated by new atomic code, or converted to UPF format
     Using radial grid of  781 points,  4 beta functions with: 
                l(1) =   0
                l(2) =   0
                l(3) =   1
                l(4) =   1
     Q(r) pseudized with  8 coefficients,  rinner =    1.100   1.100   1.100


     PseudoPot. # 2 for N  read from file:
     ../N.oncvpsp.upf
     MD5 check sum: 563d65bfb082928f0c9eb97172f6c357
     Pseudo is Norm-conserving + core correction, Zval =  5.0
     Generated using ONCVPSP code by D. R. Hamann
     Using radial grid of 1058 points,  4 beta functions with: 
                l(1) =   0
                l(2) =   0
                l(3) =   1
                l(4) =   1

     atomic species   valence    mass     pseudopotential
        B              3.00    10.81100     B ( 1.00)
        N              5.00    14.00670     N ( 1.00)

      2 Sym. Ops. (no inversion) found



   Cartesian axes

     site n.     atom                  positions (alat units)
         1           B   tau(   1) = (   0.1859956   0.4093249   0.0000000  )
         2           B   tau(   2) = (   0.8161926   0.4093249   0.0000000  )
         3           N   tau(   3) = (   0.3435449   0.1367615   0.0000000  )
         4           N   tau(   4) = (   0.6586433   0.1367615   0.0000000  )

     number of k points=   113 (tetrahedron method)

     Number of k-points >= 100: set verbosity='high' to print them.

     Dense  grid:    74509 G-vectors     FFT dimensions: (  50,  27, 108)

     Estimated max dynamical RAM per process >      82.20 MB

     Check: negative core charge=   -0.000004

     The potential is recalculated from file :
     ./outdir/b2n2.save/charge-density


     negative rho (up, down):  6.376E-06 0.000E+00
     Starting wfcs are   16 randomized atomic wfcs +    4 random wfcs

     Band Structure Calculation
     Davidson diagonalization with overlap
     c_bands:  1 eigenvalues not converged

     ethr =  6.25E-11,  avg # of iterations = 65.7

     total cpu time spent up to now is      718.8 secs

     End of band structure calculation

     Number of k-points >= 100: set verbosity='high' to print the bands.

     the Fermi energy is    -0.5862 ev
     (compare with:    -1.2433 eV, computed in scf)

     Writing all to output data dir ./outdir/b2n2.save/

     init_run     :      0.92s CPU      0.96s WALL (       1 calls)
     electrons    :    711.98s CPU    717.76s WALL (       1 calls)

     Called by init_run:
     wfcinit      :      0.00s CPU      0.00s WALL (       1 calls)
     potinit      :      0.07s CPU      0.08s WALL (       1 calls)
     hinit0       :      0.64s CPU      0.65s WALL (       1 calls)

     Called by electrons:
     c_bands      :    711.97s CPU    717.75s WALL (       1 calls)
     v_of_rho     :      0.06s CPU      0.07s WALL (       1 calls)
     newd         :      0.06s CPU      0.07s WALL (       1 calls)

     Called by c_bands:
     init_us_2    :      0.13s CPU      0.26s WALL (     113 calls)
     init_us_2:cp :      0.13s CPU      0.26s WALL (     113 calls)
     cegterg      :    697.31s CPU    702.73s WALL (     416 calls)

     Called by *egterg:
     cdiaghg      :      5.21s CPU      5.24s WALL (    7541 calls)
     h_psi        :    325.98s CPU    328.84s WALL (    7957 calls)
     s_psi        :     44.68s CPU     45.45s WALL (    7957 calls)
     g_psi        :      2.52s CPU      2.54s WALL (    7428 calls)

     Called by h_psi:
     h_psi:calbec :     45.20s CPU     45.38s WALL (    7957 calls)
     vloc_psi     :    232.81s CPU    234.72s WALL (    7957 calls)
     add_vuspsi   :     45.67s CPU     45.84s WALL (    7957 calls)

     General routines
     calbec       :     45.16s CPU     45.35s WALL (    7957 calls)
     fft          :      0.31s CPU      0.32s WALL (      12 calls)
     fftw         :    198.16s CPU    199.69s WALL (  155184 calls)
     davcio       :      0.14s CPU      3.32s WALL (     226 calls)

     Parallel routines

     PWSCF        :  11m53.15s CPU  12m 2.66s WALL


   This run was terminated on:  16: 2:59  27May2023            

=------------------------------------------------------------------------------=
   JOB DONE.
=------------------------------------------------------------------------------=
