
     Program PWSCF v.7.2 starts on 27May2023 at 16: 2:59 

     This program is part of the open-source Quantum ESPRESSO suite
     for quantum simulation of materials; please cite
         "P. Giannozzi et al., J. Phys.:Condens. Matter 21 395502 (2009);
         "P. Giannozzi et al., J. Phys.:Condens. Matter 29 465901 (2017);
         "P. Giannozzi et al., J. Chem. Phys. 152 154105 (2020);
          URL http://www.quantum-espresso.org", 
     in publications or presentations arising from this work. More details at
     http://www.quantum-espresso.org/quote

     Parallel version (MPI), running on     1 processors

     MPI processes distributed on     1 nodes
     96 MiB available memory on the printing compute node when the environment starts

     Reading input from 3.b2n2.bands.in

     Current dimensions of program PWSCF are:
     Max number of different atomic species (ntypx) = 10
     Max number of k-points (npk) =  40000
     Max angular momentum in pseudopotentials (lmaxx) =  4

     Atomic positions and unit cell read from directory:
     ./outdir/b2n2.save/


     Subspace diagonalization in iterative solution of the eigenvalue problem:
     a serial algorithm will be used


     G-vector sticks info
     --------------------
     sticks:   dense  smooth     PW     G-vecs:    dense   smooth      PW
     Sum        1043    1043    309                74509    74509   11931

     Using Slab Decomposition



     bravais-lattice index     =            8
     lattice parameter (alat)  =       8.6360  a.u.
     unit-cell volume          =     770.9972 (a.u.)^3
     number of atoms/cell      =            4
     number of atomic types    =            2
     number of electrons       =        16.00
     number of Kohn-Sham states=           20
     kinetic-energy cutoff     =      80.0000  Ry
     charge density cutoff     =     320.0000  Ry
     Exchange-correlation= PBE
                           (   1   4   3   4   0   0   0)

     celldm(1)=   8.636048  celldm(2)=   0.547046  celldm(3)=   2.188184
     celldm(4)=   0.000000  celldm(5)=   0.000000  celldm(6)=   0.000000

     crystal axes: (cart. coord. in units of alat)
               a(1) = (   1.000000   0.000000   0.000000 )  
               a(2) = (   0.000000   0.547046   0.000000 )  
               a(3) = (   0.000000   0.000000   2.188184 )  

     reciprocal axes: (cart. coord. in units 2 pi/alat)
               b(1) = (  1.000000  0.000000  0.000000 )  
               b(2) = (  0.000000  1.828000  0.000000 )  
               b(3) = (  0.000000  0.000000  0.457000 )  


     PseudoPot. # 1 for B  read from file:
     ../B_pbe_v1.01.uspp.F.UPF
     MD5 check sum: d081ebb89d0c768e112975f650467a00
     Pseudo is Ultrasoft + core correction, Zval =  3.0
     Generated by new atomic code, or converted to UPF format
     Using radial grid of  781 points,  4 beta functions with: 
                l(1) =   0
                l(2) =   0
                l(3) =   1
                l(4) =   1
     Q(r) pseudized with  8 coefficients,  rinner =    1.100   1.100   1.100


     PseudoPot. # 2 for N  read from file:
     ../N.oncvpsp.upf
     MD5 check sum: 563d65bfb082928f0c9eb97172f6c357
     Pseudo is Norm-conserving + core correction, Zval =  5.0
     Generated using ONCVPSP code by D. R. Hamann
     Using radial grid of 1058 points,  4 beta functions with: 
                l(1) =   0
                l(2) =   0
                l(3) =   1
                l(4) =   1

     atomic species   valence    mass     pseudopotential
        B              3.00    10.81100     B ( 1.00)
        N              5.00    14.00670     N ( 1.00)

      2 Sym. Ops. (no inversion) found



   Cartesian axes

     site n.     atom                  positions (alat units)
         1           B   tau(   1) = (   0.1859956   0.4093249   0.0000000  )
         2           B   tau(   2) = (   0.8161926   0.4093249   0.0000000  )
         3           N   tau(   3) = (   0.3435449   0.1367615   0.0000000  )
         4           N   tau(   4) = (   0.6586433   0.1367615   0.0000000  )

     number of k points=    91
                       cart. coord. in units 2pi/alat
        k(    1) = (   0.0000000   0.0000000   0.0000000), wk =   0.0219780
        k(    2) = (   0.0333333   0.0000000   0.0000000), wk =   0.0219780
        k(    3) = (   0.0666667   0.0000000   0.0000000), wk =   0.0219780
        k(    4) = (   0.1000000   0.0000000   0.0000000), wk =   0.0219780
        k(    5) = (   0.1333333   0.0000000   0.0000000), wk =   0.0219780
        k(    6) = (   0.1666667   0.0000000   0.0000000), wk =   0.0219780
        k(    7) = (   0.2000000   0.0000000   0.0000000), wk =   0.0219780
        k(    8) = (   0.2333333   0.0000000   0.0000000), wk =   0.0219780
        k(    9) = (   0.2666667   0.0000000   0.0000000), wk =   0.0219780
        k(   10) = (   0.3000000   0.0000000   0.0000000), wk =   0.0219780
        k(   11) = (   0.3333333   0.0000000   0.0000000), wk =   0.0219780
        k(   12) = (   0.3666667   0.0000000   0.0000000), wk =   0.0219780
        k(   13) = (   0.4000000   0.0000000   0.0000000), wk =   0.0219780
        k(   14) = (   0.4333333   0.0000000   0.0000000), wk =   0.0219780
        k(   15) = (   0.4666667   0.0000000   0.0000000), wk =   0.0219780
        k(   16) = (   0.5000000   0.0000000   0.0000000), wk =   0.0219780
        k(   17) = (   0.5000000   0.0457000   0.0000000), wk =   0.0219780
        k(   18) = (   0.5000000   0.0914000   0.0000000), wk =   0.0219780
        k(   19) = (   0.5000000   0.1371000   0.0000000), wk =   0.0219780
        k(   20) = (   0.5000000   0.1828000   0.0000000), wk =   0.0219780
        k(   21) = (   0.5000000   0.2285000   0.0000000), wk =   0.0219780
        k(   22) = (   0.5000000   0.2742000   0.0000000), wk =   0.0219780
        k(   23) = (   0.5000000   0.3199000   0.0000000), wk =   0.0219780
        k(   24) = (   0.5000000   0.3656000   0.0000000), wk =   0.0219780
        k(   25) = (   0.5000000   0.4113000   0.0000000), wk =   0.0219780
        k(   26) = (   0.5000000   0.4570000   0.0000000), wk =   0.0219780
        k(   27) = (   0.5000000   0.5027000   0.0000000), wk =   0.0219780
        k(   28) = (   0.5000000   0.5484000   0.0000000), wk =   0.0219780
        k(   29) = (   0.5000000   0.5941000   0.0000000), wk =   0.0219780
        k(   30) = (   0.5000000   0.6398000   0.0000000), wk =   0.0219780
        k(   31) = (   0.5000000   0.6855000   0.0000000), wk =   0.0219780
        k(   32) = (   0.5000000   0.7312000   0.0000000), wk =   0.0219780
        k(   33) = (   0.5000000   0.7769000   0.0000000), wk =   0.0219780
        k(   34) = (   0.5000000   0.8226000   0.0000000), wk =   0.0219780
        k(   35) = (   0.5000000   0.8683000   0.0000000), wk =   0.0219780
        k(   36) = (   0.5000000   0.9140000   0.0000000), wk =   0.0219780
        k(   37) = (   0.4666667   0.9140000   0.0000000), wk =   0.0219780
        k(   38) = (   0.4333333   0.9140000   0.0000000), wk =   0.0219780
        k(   39) = (   0.4000000   0.9140000   0.0000000), wk =   0.0219780
        k(   40) = (   0.3666667   0.9140000   0.0000000), wk =   0.0219780
        k(   41) = (   0.3333333   0.9140000   0.0000000), wk =   0.0219780
        k(   42) = (   0.3000000   0.9140000   0.0000000), wk =   0.0219780
        k(   43) = (   0.2666667   0.9140000   0.0000000), wk =   0.0219780
        k(   44) = (   0.2333333   0.9140000   0.0000000), wk =   0.0219780
        k(   45) = (   0.2000000   0.9140000   0.0000000), wk =   0.0219780
        k(   46) = (   0.1666667   0.9140000   0.0000000), wk =   0.0219780
        k(   47) = (   0.1333333   0.9140000   0.0000000), wk =   0.0219780
        k(   48) = (   0.1000000   0.9140000   0.0000000), wk =   0.0219780
        k(   49) = (   0.0666667   0.9140000   0.0000000), wk =   0.0219780
        k(   50) = (   0.0333333   0.9140000   0.0000000), wk =   0.0219780
        k(   51) = (   0.0000000   0.9140000   0.0000000), wk =   0.0219780
        k(   52) = (   0.0000000   0.8683000   0.0000000), wk =   0.0219780
        k(   53) = (   0.0000000   0.8226000   0.0000000), wk =   0.0219780
        k(   54) = (   0.0000000   0.7769000   0.0000000), wk =   0.0219780
        k(   55) = (   0.0000000   0.7312000   0.0000000), wk =   0.0219780
        k(   56) = (   0.0000000   0.6855000   0.0000000), wk =   0.0219780
        k(   57) = (   0.0000000   0.6398000   0.0000000), wk =   0.0219780
        k(   58) = (   0.0000000   0.5941000   0.0000000), wk =   0.0219780
        k(   59) = (   0.0000000   0.5484000   0.0000000), wk =   0.0219780
        k(   60) = (   0.0000000   0.5027000   0.0000000), wk =   0.0219780
        k(   61) = (   0.0000000   0.4570000   0.0000000), wk =   0.0219780
        k(   62) = (   0.0000000   0.4113000   0.0000000), wk =   0.0219780
        k(   63) = (   0.0000000   0.3656000   0.0000000), wk =   0.0219780
        k(   64) = (   0.0000000   0.3199000   0.0000000), wk =   0.0219780
        k(   65) = (   0.0000000   0.2742000   0.0000000), wk =   0.0219780
        k(   66) = (   0.0000000   0.2285000   0.0000000), wk =   0.0219780
        k(   67) = (   0.0000000   0.1828000   0.0000000), wk =   0.0219780
        k(   68) = (   0.0000000   0.1371000   0.0000000), wk =   0.0219780
        k(   69) = (   0.0000000   0.0914000   0.0000000), wk =   0.0219780
        k(   70) = (   0.0000000   0.0457000   0.0000000), wk =   0.0219780
        k(   71) = (   0.0000000   0.0000000   0.0000000), wk =   0.0219780
        k(   72) = (   0.0250000   0.0457000   0.0000000), wk =   0.0219780
        k(   73) = (   0.0500000   0.0914000   0.0000000), wk =   0.0219780
        k(   74) = (   0.0750000   0.1371000   0.0000000), wk =   0.0219780
        k(   75) = (   0.1000000   0.1828000   0.0000000), wk =   0.0219780
        k(   76) = (   0.1250000   0.2285000   0.0000000), wk =   0.0219780
        k(   77) = (   0.1500000   0.2742000   0.0000000), wk =   0.0219780
        k(   78) = (   0.1750000   0.3199000   0.0000000), wk =   0.0219780
        k(   79) = (   0.2000000   0.3656000   0.0000000), wk =   0.0219780
        k(   80) = (   0.2250000   0.4113000   0.0000000), wk =   0.0219780
        k(   81) = (   0.2500000   0.4570000   0.0000000), wk =   0.0219780
        k(   82) = (   0.2750000   0.5027000   0.0000000), wk =   0.0219780
        k(   83) = (   0.3000000   0.5484000   0.0000000), wk =   0.0219780
        k(   84) = (   0.3250000   0.5941000   0.0000000), wk =   0.0219780
        k(   85) = (   0.3500000   0.6398000   0.0000000), wk =   0.0219780
        k(   86) = (   0.3750000   0.6855000   0.0000000), wk =   0.0219780
        k(   87) = (   0.4000000   0.7312000   0.0000000), wk =   0.0219780
        k(   88) = (   0.4250000   0.7769000   0.0000000), wk =   0.0219780
        k(   89) = (   0.4500000   0.8226000   0.0000000), wk =   0.0219780
        k(   90) = (   0.4750000   0.8683000   0.0000000), wk =   0.0219780
        k(   91) = (   0.5000000   0.9140000   0.0000000), wk =   0.0219780

     Dense  grid:    74509 G-vectors     FFT dimensions: (  50,  27, 108)

     Estimated max dynamical RAM per process >      82.20 MB

     Check: negative core charge=   -0.000004

     The potential is recalculated from file :
     ./outdir/b2n2.save/charge-density


     negative rho (up, down):  6.376E-06 0.000E+00
     Starting wfcs are   16 randomized atomic wfcs +    4 random wfcs

     Band Structure Calculation
     Davidson diagonalization with overlap
     c_bands:  1 eigenvalues not converged
     c_bands:  1 eigenvalues not converged

     ethr =  6.25E-11,  avg # of iterations = 67.6

     total cpu time spent up to now is      576.3 secs

     End of band structure calculation

          k = 0.0000 0.0000 0.0000 (  9333 PWs)   bands (ev):

   -21.7702 -16.0742 -11.7987  -7.9689  -7.1289  -4.2554  -3.6084  -2.9662
     1.3774   2.1568   4.2736   4.5561   4.9151   7.4328   8.3901   9.0070
     9.4475   9.5705   9.6107  10.6591

          k = 0.0333 0.0000 0.0000 (  9327 PWs)   bands (ev):

   -21.7687 -16.0872 -11.7742  -7.9642  -7.1261  -4.2609  -3.6279  -2.9978
     1.4030   2.1640   4.2832   4.5617   4.9444   7.4339   8.2733   8.9434
     9.5135   9.5989   9.6289  10.6615

          k = 0.0667 0.0000 0.0000 (  9331 PWs)   bands (ev):

   -21.7643 -16.1249 -11.7022  -7.9499  -7.1179  -4.2770  -3.6849  -3.0910
     1.4781   2.1856   4.3120   4.5796   5.0290   7.4353   8.0070   8.7813
     9.5987   9.6584   9.6832  10.7023

          k = 0.1000 0.0000 0.0000 (  9323 PWs)   bands (ev):

   -21.7571 -16.1841 -11.5858  -7.9265  -7.1045  -4.3032  -3.7750  -3.2407
     1.5982   2.2218   4.3599   4.6115   5.1605   7.4229   7.7018   8.5611
     9.5643   9.7143   9.7735  10.5129

          k = 0.1333 0.0000 0.0000 (  9317 PWs)   bands (ev):

   -21.7475 -16.2604 -11.4301  -7.8941  -7.0862  -4.3386  -3.8924  -3.4398
     1.7567   2.2732   4.4267   4.6582   5.3272   7.2672   7.5288   8.3069
     9.4066   9.7380   9.8987  10.3507

          k = 0.1667 0.0000 0.0000 (  9317 PWs)   bands (ev):

   -21.7357 -16.3484 -11.2405  -7.8535  -7.0636  -4.3818  -4.0302  -3.6798
     1.9461   2.3399   4.5123   4.7198   5.5140   6.9557   7.5210   8.0340
     9.1803   9.6875  10.0570  10.2615

          k = 0.2000 0.0000 0.0000 (  9305 PWs)   bands (ev):

   -21.7222 -16.4431 -11.0232  -7.8054  -7.0373  -4.4312  -4.1816  -3.9519
     2.1589   2.4222   4.6158   4.7957   5.6961   6.6476   7.5389   7.7536
     8.9251   9.5419  10.2466  10.2654

          k = 0.2333 0.0000 0.0000 (  9291 PWs)   bands (ev):

   -21.7075 -16.5397 -10.7838  -7.7509  -7.0081  -4.4851  -4.3402  -4.2471
     2.3878   2.5201   4.7356   4.8848   5.8095   6.4153   7.4745   7.5656
     8.6641   9.3348  10.3299  10.4652

          k = 0.2667 0.0000 0.0000 (  9303 PWs)   bands (ev):

   -21.6923 -16.6342 -10.5286  -7.6914  -6.9771  -4.5667  -4.5316  -4.5001
     2.6259   2.6337   4.8687   4.9849   5.7227   6.3812   7.2050   7.5991
     8.4125   9.0967  10.4257  10.7097

          k = 0.3000 0.0000 0.0000 (  9326 PWs)   bands (ev):

   -21.6773 -16.7228 -10.2639  -7.6290  -6.9456  -4.8759  -4.6556  -4.5944
     2.7629   2.8670   5.0089   5.0858   5.4955   6.4782   6.9545   7.6399
     8.1840   8.8423  10.5401  10.9759

          k = 0.3333 0.0000 0.0000 (  9336 PWs)   bands (ev):

   -21.6629 -16.8028  -9.9973  -7.5661  -6.9149  -5.1889  -4.8015  -4.6475
     2.9075   3.1046   5.0922   5.1450   5.3409   6.5666   6.7366   7.6884
     7.9942   8.5800  10.6672  11.2102

          k = 0.3667 0.0000 0.0000 (  9320 PWs)   bands (ev):

   -21.6501 -16.8715  -9.7385  -7.5058  -6.8866  -5.4877  -4.9323  -4.6953
     3.0672   3.3319   4.8701   5.2567   5.4258   6.5723   6.5931   7.7365
     7.8647   8.3176  10.8019  11.2567

          k = 0.4000 0.0000 0.0000 (  9314 PWs)   bands (ev):

   -21.6393 -16.9270  -9.5009  -7.4521  -6.8624  -5.7577  -5.0425  -4.7355
     3.2418   3.5398   4.6090   5.3169   5.5682   6.4887   6.5440   7.7316
     7.8470   8.0647  10.9377  11.3049

          k = 0.4333 0.0000 0.0000 (  9326 PWs)   bands (ev):

   -21.6312 -16.9677  -9.3029  -7.4092  -6.8436  -5.9794  -5.1266  -4.7660
     3.4302   3.7149   4.3536   5.3145   5.7242   6.4350   6.4943   7.6985
     7.8374   7.8942  11.0635  11.3564

          k = 0.4667 0.0000 0.0000 (  9340 PWs)   bands (ev):

   -21.6262 -16.9926  -9.1683  -7.3813  -6.8318  -6.1285  -5.1794  -4.7851
     3.6284   3.8370   4.1140   5.2798   5.8786   6.2987   6.5493   7.6658
     7.6820   7.9325  11.1594  11.3986

          k = 0.5000 0.0000 0.0000 (  9352 PWs)   bands (ev):

   -21.6244 -17.0010  -9.1201  -7.3717  -6.8277  -6.1817  -5.1975  -4.7916
     3.7789   3.8817   3.9496   5.2607   5.9710   6.2106   6.5815   7.5983
     7.6775   7.9465  11.1968  11.4152

          k = 0.5000 0.0457 0.0000 (  9338 PWs)   bands (ev):

   -21.6166 -16.9941  -9.1203  -7.3616  -6.8696  -6.1733  -5.1848  -4.8253
     3.7971   3.8830   3.9664   5.2696   6.0004   6.2289   6.5877   7.5877
     7.7162   7.9361  11.2107  11.3780

          k = 0.5000 0.0914 0.0000 (  9322 PWs)   bands (ev):

   -21.5931 -16.9736  -9.1210  -7.3315  -6.9925  -6.1486  -5.1466  -4.9240
     3.8509   3.8861   4.0163   5.2956   6.0852   6.2818   6.6066   7.5565
     7.8336   7.8997  11.2525  11.2993

          k = 0.5000 0.1371 0.0000 (  9318 PWs)   bands (ev):

   -21.5542 -16.9395  -9.1226  -7.2817  -7.1888  -6.1097  -5.0830  -5.0804
     3.8887   3.9381   4.0985   5.3360   6.2166   6.3632   6.6386   7.5059
     7.8249   8.0318  11.2391  11.3222

          k = 0.5000 0.1828 0.0000 (  9310 PWs)   bands (ev):

   -21.5002 -16.8923  -9.1261  -7.4470  -7.2125  -6.0628  -5.2807  -4.9942
     3.8868   4.0564   4.2117   5.3855   6.3834   6.4605   6.6847   7.4395
     7.7030   8.3113  11.2426  11.4197

          k = 0.5000 0.2285 0.0000 (  9318 PWs)   bands (ev):

   -21.4318 -16.8322  -9.1335  -7.7530  -7.1246  -6.0302  -5.4937  -4.8803
     3.8751   4.2036   4.3547   5.4349   6.5454   6.5757   6.7464   7.3648
     7.5496   8.6670  11.3309  11.5449

          k = 0.5000 0.2742 0.0000 (  9320 PWs)   bands (ev):

   -21.3496 -16.7600  -9.1498  -8.0895  -7.0188  -6.0948  -5.6270  -4.7417
     3.8464   4.3784   4.5264   5.4688   6.5491   6.7872   6.8261   7.2959
     7.4346   9.0851  11.5018  11.5250

          k = 0.5000 0.3199 0.0000 (  9336 PWs)   bands (ev):

   -21.2546 -16.6763  -9.1886  -8.4309  -6.8964  -6.3252  -5.6037  -4.5787
     3.7927   4.5800   4.7259   5.4656   6.3849   6.9266   7.0155   7.2550
     7.4564   9.5377  11.3645  11.7357

          k = 0.5000 0.3656 0.0000 (  9336 PWs)   bands (ev):

   -21.1480 -16.5821  -9.2935  -8.7232  -6.7586  -6.6354  -5.5016  -4.3918
     3.7061   4.8081   4.9517   5.4017   6.0770   7.0511   7.2603   7.2677
     7.6074   9.9653  11.2809  12.0035

          k = 0.5000 0.4113 0.0000 (  9320 PWs)   bands (ev):

   -21.0313 -16.4786  -9.5326  -8.8889  -6.9724  -6.6074  -5.3672  -4.1814
     3.5792   5.0625   5.1970   5.2643   5.7040   7.2030   7.3514   7.5218
     7.8305  10.2425  11.3863  12.2703

          k = 0.5000 0.4570 0.0000 (  9328 PWs)   bands (ev):

   -20.9063 -16.3674  -9.8732  -8.9519  -7.3172  -6.4448  -5.2138  -3.9485
     3.4073   5.0581   5.2316   5.3433   5.5372   7.3848   7.5075   7.7998
     8.0974  10.2942  11.7397  12.3709

          k = 0.5000 0.5027 0.0000 (  9308 PWs)   bands (ev):

   -20.7753 -16.2503 -10.2442  -8.9760  -7.6594  -6.2737  -5.0474  -3.6938
     3.1888   4.8003   4.8310   5.6500   5.8228   7.5980   7.7271   8.0918
     8.3972  10.2322  12.2079  12.3647

          k = 0.5000 0.5484 0.0000 (  9324 PWs)   bands (ev):

   -20.6411 -16.1296 -10.6138  -8.9859  -7.9914  -6.0975  -4.8723  -3.4186
     2.9255   4.4124   4.5108   5.9823   6.1578   7.8426   7.9996   8.3917
     8.7251  10.1519  12.3654  12.6622

          k = 0.5000 0.5941 0.0000 (  9328 PWs)   bands (ev):

   -20.5067 -16.0081 -10.9671  -8.9898  -8.3062  -5.9202  -4.6929  -3.1246
     2.6227   4.0058   4.2077   6.3391   6.5226   8.1174   8.3167   8.6854
     9.0787  10.1007  12.3726  12.7021

          k = 0.5000 0.6398 0.0000 (  9308 PWs)   bands (ev):

   -20.3761 -15.8892 -11.2944  -8.9909  -8.5976  -5.7467  -4.5143  -2.8142
     2.2878   3.6229   3.9071   6.7186   6.9151   8.4196   8.6725   8.9432
     9.4560  10.1220  12.3784  12.5732

          k = 0.5000 0.6855 0.0000 (  9284 PWs)   bands (ev):

   -20.2535 -15.7768 -11.5878  -8.9906  -8.8593  -5.5828  -4.3426  -2.4909
     1.9306   3.2734   3.6234   7.1173   7.3346   8.7449   9.0629   9.1246
     9.8547  10.2642  12.3161  12.3659

          k = 0.5000 0.7312 0.0000 (  9302 PWs)   bands (ev):

   -20.1436 -15.6753 -11.8402  -9.0851  -8.9896  -5.4349  -4.1848  -2.1603
     1.5629   2.9671   3.3695   7.5274   7.7802   9.0862   9.2239   9.4846
    10.2714  10.5413  11.9297  12.2422

          k = 0.5000 0.7769 0.0000 (  9288 PWs)   bands (ev):

   -20.0513 -15.5896 -12.0448  -9.2689  -8.9886  -5.3099  -4.0491  -1.8326
     1.2003   2.7141   3.1574   7.9319   8.2508   9.2907   9.4311   9.9343
    10.6944  10.9168  11.4586  11.6837

          k = 0.5000 0.8226 0.0000 (  9282 PWs)   bands (ev):

   -19.9812 -15.5241 -12.1959  -9.4051  -8.9876  -5.2144  -3.9438  -1.5282
     0.8676   2.5242   2.9973   8.2898   8.7446   9.3951   9.7562  10.4068
    10.8442  11.1036  11.2222  11.3755

          k = 0.5000 0.8683 0.0000 (  9270 PWs)   bands (ev):

   -19.9374 -15.4830 -12.2886  -9.4889  -8.9870  -5.1545  -3.8769  -1.2899
     0.6111   2.4062   2.8977   8.5289   9.2587   9.6071  10.0134  10.3385
    10.5913  10.8865  11.6178  11.8372

          k = 0.5000 0.9140 0.0000 (  9272 PWs)   bands (ev):

   -19.9225 -15.4690 -12.3199  -9.5172  -8.9868  -5.1340  -3.8539  -1.1936
     0.5084   2.3661   2.8638   8.6066   9.7369   9.8260   9.8517  10.1182
    10.2702  11.2159  11.7408  11.7557

          k = 0.4667 0.9140 0.0000 (  9278 PWs)   bands (ev):

   -19.9243 -15.4615 -12.3230  -9.5087  -9.0010  -5.1357  -3.8649  -1.1893
     0.4986   2.3928   2.8820   8.6157   9.5665   9.7787  10.0038  10.0823
    10.3683  11.2562  11.5418  11.8459

          k = 0.4333 0.9140 0.0000 (  9286 PWs)   bands (ev):

   -19.9295 -15.4394 -12.3320  -9.4837  -9.0429  -5.1408  -3.8973  -1.1765
     0.4705   2.4724   2.9351   8.6390   9.3684   9.6531   9.9885  10.2215
    10.5725  11.3439  11.3628  11.7184

          k = 0.4000 0.9140 0.0000 (  9312 PWs)   bands (ev):

   -19.9379 -15.4032 -12.3464  -9.4431  -9.1105  -5.1490  -3.9500  -1.1558
     0.4270   2.6031   3.0195   8.6637   9.1804   9.5516   9.8621  10.4325
    10.8164  11.1561  11.5072  11.5736

          k = 0.3667 0.9140 0.0000 (  9312 PWs)   bands (ev):

   -19.9490 -15.3542 -12.3653  -9.3884  -9.2009  -5.1598  -4.0209  -1.1280
     0.3723   2.7819   3.1302   8.6688   9.0042   9.5084   9.7219  10.6119
    10.9789  11.0806  11.4428  11.5720

          k = 0.3333 0.9140 0.0000 (  9296 PWs)   bands (ev):

   -19.9623 -15.2939 -12.3874  -9.3224  -9.3093  -5.1727  -4.1073  -1.0945
     0.3108   3.0053   3.2614   8.6379   8.8405   9.5410   9.5793  10.7071
    10.8131  11.3106  11.3645  11.4786

          k = 0.3000 0.9140 0.0000 (  9312 PWs)   bands (ev):

   -19.9771 -15.2243 -12.4117  -9.4334  -9.2451  -5.1872  -4.2058  -1.0566
     0.2462   3.2690   3.4073   8.5744   8.6891   9.4404   9.6429  10.6589
    10.6628  11.2489  11.3602  11.7099

          k = 0.2667 0.9140 0.0000 (  9296 PWs)   bands (ev):

   -19.9927 -15.1478 -12.4369  -9.5658  -9.1620  -5.2024  -4.3126  -1.0160
     0.1820   3.5622   3.5683   8.4938   8.5497   9.3092   9.7930  10.5029
    10.5166  11.1352  11.3622  12.0261

          k = 0.2333 0.9140 0.0000 (  9298 PWs)   bands (ev):

   -20.0084 -15.0672 -12.4618  -9.7018  -9.0752  -5.2178  -4.4236  -0.9745
     0.1207   3.7204   3.8981   8.4094   8.4211   9.1884   9.9703  10.2725
    10.3865  11.0349  11.3121  12.1266

          k = 0.2000 0.9140 0.0000 (  9306 PWs)   bands (ev):

   -20.0235 -14.9858 -12.4854  -9.8360  -8.9881  -5.2326  -4.5342  -0.9338
     0.0643   3.8760   4.2527   8.2998   8.3302   9.0799   9.9929  10.1566
    10.2690  10.9555  11.2233  12.1564

          k = 0.1667 0.9140 0.0000 (  9318 PWs)   bands (ev):

   -20.0375 -14.9072 -12.5069  -9.9626  -8.9045  -5.2463  -4.6398  -0.8956
     0.0145   4.0232   4.6259   8.1824   8.2589   8.9854   9.6833  10.1648
    10.3287  10.9063  11.1269  12.1586

          k = 0.1333 0.9140 0.0000 (  9298 PWs)   bands (ev):

   -20.0496 -14.8352 -12.5255 -10.0762  -8.8282  -5.2582  -4.7353  -0.8618
    -0.0276   4.1557   5.0095   8.0598   8.1987   8.9061   9.3660  10.0751
    10.4579  10.9048  11.0410  12.1442

          k = 0.1000 0.9140 0.0000 (  9318 PWs)   bands (ev):

   -20.0596 -14.7738 -12.5405 -10.1714  -8.7634  -5.2680  -4.8161  -0.8338
    -0.0612   4.2673   5.3915   7.9182   8.1510   8.8433   9.0740  10.0016
    10.5202  10.9618  10.9726  12.1230

          k = 0.0667 0.9140 0.0000 (  9324 PWs)   bands (ev):

   -20.0670 -14.7267 -12.5516 -10.2434  -8.7138  -5.2753  -4.8776  -0.8128
    -0.0856   4.3521   5.7504   7.7471   8.1164   8.7977   8.8456   9.9467
    10.5348  10.9237  11.0451  12.0907

          k = 0.0333 0.9140 0.0000 (  9308 PWs)   bands (ev):

   -20.0715 -14.6970 -12.5584 -10.2884  -8.6826  -5.2797  -4.9161  -0.7998
    -0.1004   4.4052   6.0391   7.5708   8.0955   8.7073   8.7700   9.9125
    10.5337  10.8944  11.1108  12.0266

          k = 0.0000 0.9140 0.0000 (  9322 PWs)   bands (ev):

   -20.0731 -14.6869 -12.5606 -10.3036  -8.6719  -5.2813  -4.9292  -0.7955
    -0.1053   4.4233   6.1605   7.4855   8.0885   8.6624   8.7608   9.9009
    10.5321  10.8847  11.1350  12.0038

          k = 0.0000 0.8683 0.0000 (  9304 PWs)   bands (ev):

   -20.0880 -14.6992 -12.5300 -10.3152  -8.6457  -5.3100  -4.9128  -0.8275
    -0.0749   4.4688   6.1556   7.3024   8.0167   8.6362   8.9358   9.9375
    10.1495  11.1235  11.2921  11.9182

          k = 0.0000 0.8226 0.0000 (  9336 PWs)   bands (ev):

   -20.1317 -14.7355 -12.4395 -10.3491  -8.5683  -5.3932  -4.8642  -0.9198
     0.0127   4.6011   6.1410   6.8970   7.9727   8.3425   9.3744   9.7315
     9.9648  11.0881  11.8471  11.9618

          k = 0.0000 0.7769 0.0000 (  9334 PWs)   bands (ev):

   -20.2016 -14.7934 -12.2927 -10.4026  -8.4421  -5.5231  -4.7861  -1.0626
     0.1474   4.8094   6.1167   6.4388   7.9587   7.9817   9.1112   9.9140
    10.1001  11.0269  12.1320  12.4073

          k = 0.0000 0.7312 0.0000 (  9342 PWs)   bands (ev):

   -20.2937 -14.8695 -12.0953 -10.4715  -8.2712  -5.6892  -4.6823  -1.2431
     0.3152   5.0794   5.9818   6.0829   7.6026   7.9448   8.6801   9.8139
    10.6975  10.9371  12.2792  12.9234

          k = 0.0000 0.6855 0.0000 (  9328 PWs)   bands (ev):

   -20.4034 -14.9600 -11.8560 -10.5490  -8.0604  -5.8804  -4.5576  -1.4487
     0.5006   5.3961   5.5417   6.0399   7.2260   7.8780   8.3287   9.7120
    10.8172  11.2936  12.2729  12.7045

          k = 0.0000 0.6398 0.0000 (  9320 PWs)   bands (ev):

   -20.5258 -15.0607 -11.5890 -10.6234  -7.8152  -6.0870  -4.4172  -1.6684
     0.6888   5.1241   5.7458   5.9879   6.8622   7.6355   8.1889   9.6388
    10.6673  11.8061  12.1332  12.2928

          k = 0.0000 0.5941 0.0000 (  9320 PWs)   bands (ev):

   -20.6561 -15.1676 -11.3283 -10.6631  -7.5409  -6.3006  -4.2663  -1.8935
     0.8671   4.7315   5.9273   6.1158   6.5165   7.2873   8.1942   9.6098
    10.4909  11.8989  11.9278  12.0544

          k = 0.0000 0.5484 0.0000 (  9338 PWs)   bands (ev):

   -20.7900 -15.2774 -11.1674 -10.5777  -7.2431  -6.5144  -4.1098  -2.1172
     1.0253   4.3652   5.8585   6.1919   6.4948   6.9331   8.2469   9.6291
    10.2935  11.5290  11.7018  11.9146

          k = 0.0000 0.5027 0.0000 (  9316 PWs)   bands (ev):

   -20.9239 -15.3868 -11.1650 -10.3120  -6.9275  -6.7233  -3.9525  -2.3342
     1.1570   4.0257   5.7820   5.8904   6.5952   6.8726   8.3258   9.6912
    10.0821  11.1744  11.4824  11.5601

          k = 0.0000 0.4570 0.0000 (  9283 PWs)   bands (ev):

   -21.0545 -15.4934 -11.2333  -9.9577  -6.9230  -6.5998  -3.7985  -2.5406
     1.2593   3.7136   5.6131   5.6983   6.2789   7.2394   8.4257   9.7796
     9.8636  10.8162  11.1429  11.2891

          k = 0.0000 0.4113 0.0000 (  9311 PWs)   bands (ev):

   -21.1791 -15.5948 -11.3200  -9.5721  -7.1105  -6.2661  -3.6513  -2.7334
     1.3324   3.4289   5.3609   5.6083   5.9859   7.5859   8.5434   9.6438
     9.8671  10.4059  10.7654  11.1398

          k = 0.0000 0.3656 0.0000 (  9307 PWs)   bands (ev):

   -21.2954 -15.6894 -11.4087  -9.1771  -7.2831  -5.9327  -3.5141  -2.9104
     1.3796   3.1718   5.1342   5.5130   5.7166   7.9038   8.6758   9.4278
     9.9204   9.9310  10.4695  11.0493

          k = 0.0000 0.3199 0.0000 (  9335 PWs)   bands (ev):

   -21.4016 -15.7757 -11.4932  -8.7858  -7.4391  -5.6068  -3.3892  -3.0698
     1.4053   2.9425   4.9334   5.4137   5.4713   8.1854   8.8168   9.2201
     9.4407   9.9193  10.2300  11.0170

          k = 0.0000 0.2742 0.0000 (  9323 PWs)   bands (ev):

   -21.4963 -15.8525 -11.5702  -8.4096  -7.5767  -5.2962  -3.2787  -3.2101
     1.4148   2.7409   4.7590   5.2503   5.3128   8.4254   8.8991   9.0251
     9.0331   9.8718  10.0300  11.0191

          k = 0.0000 0.2285 0.0000 (  9315 PWs)   bands (ev):

   -21.5782 -15.9189 -11.6378  -8.0601  -7.6949  -5.0097  -3.3304  -3.1838
     1.4133   2.5676   4.6110   5.0545   5.2132   8.5160   8.6207   8.8473
     9.1302   9.8012   9.8644  11.0276

          k = 0.0000 0.1828 0.0000 (  9323 PWs)   bands (ev):

   -21.6464 -15.9741 -11.6947  -7.7927  -7.7492  -4.7564  -3.4297  -3.1056
     1.4056   2.4231   4.4897   4.8857   5.1194   8.1428   8.6919   8.7714
     9.2648   9.7273   9.7321  10.9903

          k = 0.0000 0.1371 0.0000 (  9321 PWs)   bands (ev):

   -21.7002 -16.0176 -11.7397  -7.8694  -7.4895  -4.5459  -3.5076  -3.0446
     1.3955   2.3084   4.3953   4.7471   5.0368   7.8387   8.5641   8.8805
     9.3784   9.6357   9.6620  10.8485

          k = 0.0000 0.0914 0.0000 (  9325 PWs)   bands (ev):

   -21.7389 -16.0490 -11.7723  -7.9246  -7.2932  -4.3875  -3.5635  -3.0010
     1.3862   2.2249   4.3277   4.6431   4.9716   7.6151   8.4689   8.9529
     9.4467   9.5887   9.6121  10.7442

          k = 0.0000 0.0457 0.0000 (  9335 PWs)   bands (ev):

   -21.7623 -16.0679 -11.7921  -7.9578  -7.1706  -4.2889  -3.5972  -2.9749
     1.3797   2.1740   4.2872   4.5782   4.9296   7.4787   8.4100   8.9938
     9.4533   9.5810   9.5987  10.6805

          k = 0.0000 0.0000 0.0000 (  9333 PWs)   bands (ev):

   -21.7702 -16.0742 -11.7987  -7.9689  -7.1289  -4.2554  -3.6084  -2.9662
     1.3774   2.1568   4.2736   4.5561   4.9151   7.4328   8.3901   9.0070
     9.4475   9.5705   9.6107  10.6591

          k = 0.0250 0.0457 0.0000 (  9336 PWs)   bands (ev):

   -21.7615 -16.0752 -11.7783  -7.9551  -7.1690  -4.2920  -3.6082  -2.9926
     1.3941   2.1780   4.2925   4.5812   4.9460   7.4792   8.3411   8.9582
     9.4947   9.5969   9.6090  10.6804

          k = 0.0500 0.0914 0.0000 (  9325 PWs)   bands (ev):

   -21.7356 -16.0778 -11.7179  -7.9139  -7.2871  -4.4000  -3.6069  -3.0694
     1.4432   2.2410   4.3491   4.6553   5.0345   7.6153   8.2238   8.8300
     9.5526   9.6541   9.6591  10.7482

          k = 0.0750 0.1371 0.0000 (  9315 PWs)   bands (ev):

   -21.6927 -16.0808 -11.6196  -7.8457  -7.4759  -4.5744  -3.6032  -3.1901
     1.5213   2.3449   4.4427   4.7740   5.1675   7.8206   8.0997   8.6488
     9.5341   9.7285   9.7769  10.6841

          k = 0.1000 0.1828 0.0000 (  9316 PWs)   bands (ev):

   -21.6333 -16.0826 -11.4866  -7.7511  -7.7253  -4.8081  -3.5949  -3.3450
     1.6232   2.4883   4.5724   4.9317   5.3244   7.8753   8.2098   8.4288
     9.5094   9.7728   9.8779  10.5898

          k = 0.1250 0.2285 0.0000 (  9328 PWs)   bands (ev):

   -21.5581 -16.0814 -11.3234  -8.0232  -7.6311  -5.0923  -3.5791  -3.5227
     1.7418   2.6701   4.7369   5.1203   5.4802   7.7639   8.1745   8.5744
     9.5072   9.7519   9.9404  10.5828

          k = 0.1500 0.2742 0.0000 (  9318 PWs)   bands (ev):

   -21.4678 -16.0752 -11.1353  -8.3571  -7.4871  -5.4178  -3.7110  -3.5530
     1.8681   2.8895   4.9342   5.3216   5.6179   7.6616   7.8853   9.0123
     9.5491   9.6579   9.9849  10.6834

          k = 0.1750 0.3199 0.0000 (  9315 PWs)   bands (ev):

   -21.3636 -16.0623 -10.9296  -8.7143  -7.3210  -5.7753  -3.8983  -3.5132
     1.9914   3.1458   5.1619   5.4683   5.7751   7.5591   7.5862   9.4661
     9.5291   9.6672  10.0493  10.8667

          k = 0.2000 0.3656 0.0000 (  9302 PWs)   bands (ev):

   -21.2469 -16.0414 -10.7159  -9.0812  -7.1350  -6.1556  -4.0737  -3.4568
     2.1000   3.4388   5.4155   5.4716   6.0241   7.1970   7.5424   9.4039
     9.6749  10.0707  10.1874  11.1067

          k = 0.2250 0.4113 0.0000 (  9295 PWs)   bands (ev):

   -21.1194 -16.0116 -10.5120  -9.4377  -6.9322  -6.5496  -4.2271  -3.3806
     2.1814   3.7681   5.3557   5.6834   6.3391   6.8115   7.5323   9.3058
     9.7568  10.4018  10.6133  11.3857

          k = 0.2500 0.4570 0.0000 (  9301 PWs)   bands (ev):

   -20.9832 -15.9725 -10.3738  -9.7276  -6.9490  -6.7163  -4.3497  -3.2815
     2.2239   4.1330   5.1550   5.8937   6.4800   6.6949   7.5572   9.2488
     9.8157  10.7012  11.1039  11.6611

          k = 0.2750 0.5027 0.0000 (  9296 PWs)   bands (ev):

   -20.8407 -15.9245 -10.4611  -9.7918  -7.3453  -6.4921  -4.4339  -3.1567
     2.2182   4.5290   4.8944   5.7192   6.5392   7.0807   7.6213   9.2404
     9.8680  10.9995  11.3105  11.7689

          k = 0.3000 0.5484 0.0000 (  9285 PWs)   bands (ev):

   -20.6951 -15.8683 -10.7409  -9.6645  -7.7306  -6.2649  -4.4740  -3.0035
     2.1589   4.5597   4.9861   5.2902   6.8714   7.4698   7.7480   9.2836
     9.9108  11.0224  11.4576  11.8251

          k = 0.3250 0.5941 0.0000 (  9297 PWs)   bands (ev):

   -20.5498 -15.8058 -11.0549  -9.5046  -8.0972  -6.0413  -4.4672  -2.8198
     2.0452   4.2157   4.8243   5.4542   7.2730   7.7416   8.0544   9.3777
     9.9240  10.8892  11.7304  11.9088

          k = 0.3500 0.6398 0.0000 (  9299 PWs)   bands (ev):

   -20.4088 -15.7394 -11.3567  -9.3576  -8.4371  -5.8282  -4.4147  -2.6044
     1.8792   3.8493   4.3660   5.9612   7.7150   7.9220   8.5059   9.5193
     9.8884  10.8473  11.9083  12.0064

          k = 0.3750 0.6855 0.0000 (  9308 PWs)   bands (ev):

   -20.2769 -15.6722 -11.6307  -9.2358  -8.7424  -5.6329  -4.3230  -2.3582
     1.6653   3.4815   3.9393   6.5013   8.1102   8.1887   8.9750   9.7043
     9.8419  10.9201  11.8452  12.0861

          k = 0.4000 0.7312 0.0000 (  9291 PWs)   bands (ev):

   -20.1589 -15.6082 -11.8676  -9.1454  -9.0020  -5.4624  -4.2046  -2.0856
     1.4100   3.1322   3.5652   7.0694   8.3178   8.6846   9.3252   9.9294
     9.9485  11.0730  11.5389  12.1093

          k = 0.4250 0.7769 0.0000 (  9295 PWs)   bands (ev):

   -20.0601 -15.5517 -12.0604  -9.2301  -9.0634  -5.3227  -4.0773  -1.7970
     1.1260   2.8235   3.2619   7.6524   8.5416   9.1845   9.4300  10.1960
    10.3689  11.0984  11.3230  12.0101

          k = 0.4500 0.8226 0.0000 (  9299 PWs)   bands (ev):

   -19.9852 -15.5073 -12.2028  -9.3865  -9.0206  -5.2192  -3.9628  -1.5153
     0.8398   2.5790   3.0411   8.1967   8.7991   9.5029   9.6468  10.5161
    10.6504  10.9810  11.3044  11.6425

          k = 0.4750 0.8683 0.0000 (  9286 PWs)   bands (ev):

   -19.9384 -15.4788 -12.2904  -9.4842  -8.9951  -5.1555  -3.8827  -1.2873
     0.6051   2.4209   2.9081   8.5267   9.2193   9.6630   9.9897  10.2676
    10.6702  10.9076  11.5476  11.7774

          k = 0.5000 0.9140 0.0000 (  9272 PWs)   bands (ev):

   -19.9225 -15.4690 -12.3199  -9.5172  -8.9868  -5.1340  -3.8539  -1.1936
     0.5084   2.3661   2.8638   8.6066   9.7369   9.8260   9.8517  10.1182
    10.2702  11.2159  11.7408  11.7557

     Writing all to output data dir ./outdir/b2n2.save/

     init_run     :      0.91s CPU      0.97s WALL (       1 calls)
     electrons    :    570.73s CPU    575.22s WALL (       1 calls)

     Called by init_run:
     wfcinit      :      0.00s CPU      0.00s WALL (       1 calls)
     potinit      :      0.07s CPU      0.10s WALL (       1 calls)
     hinit0       :      0.65s CPU      0.67s WALL (       1 calls)

     Called by electrons:
     c_bands      :    570.73s CPU    575.22s WALL (       1 calls)
     v_of_rho     :      0.07s CPU      0.08s WALL (       1 calls)
     newd         :      0.06s CPU      0.07s WALL (       1 calls)

     Called by c_bands:
     init_us_2    :      0.11s CPU      0.22s WALL (      91 calls)
     init_us_2:cp :      0.11s CPU      0.21s WALL (      91 calls)
     cegterg      :    559.02s CPU    563.24s WALL (     343 calls)

     Called by *egterg:
     cdiaghg      :      4.29s CPU      4.31s WALL (    6245 calls)
     h_psi        :    258.61s CPU    260.91s WALL (    6588 calls)
     s_psi        :     36.34s CPU     36.96s WALL (    6588 calls)
     g_psi        :      2.01s CPU      2.03s WALL (    6154 calls)

     Called by h_psi:
     h_psi:calbec :     36.59s CPU     36.73s WALL (    6588 calls)
     vloc_psi     :    183.11s CPU    184.60s WALL (    6588 calls)
     add_vuspsi   :     37.04s CPU     37.19s WALL (    6588 calls)

     General routines
     calbec       :     36.56s CPU     36.70s WALL (    6588 calls)
     fft          :      0.31s CPU      0.31s WALL (      12 calls)
     fftw         :    155.24s CPU    156.43s WALL (  125406 calls)
     davcio       :      0.08s CPU      0.23s WALL (     182 calls)

     Parallel routines

     PWSCF        :   9m31.88s CPU   9m36.95s WALL


   This run was terminated on:  16:12:36  27May2023            

=------------------------------------------------------------------------------=
   JOB DONE.
=------------------------------------------------------------------------------=
