
     Program BANDS v.7.2 starts on 27May2023 at 16:12:37 

     This program is part of the open-source Quantum ESPRESSO suite
     for quantum simulation of materials; please cite
         "P. Giannozzi et al., J. Phys.:Condens. Matter 21 395502 (2009);
         "P. Giannozzi et al., J. Phys.:Condens. Matter 29 465901 (2017);
         "P. Giannozzi et al., J. Chem. Phys. 152 154105 (2020);
          URL http://www.quantum-espresso.org", 
     in publications or presentations arising from this work. More details at
     http://www.quantum-espresso.org/quote

     Parallel version (MPI), running on     1 processors

     MPI processes distributed on     1 nodes
     115 MiB available memory on the printing compute node when the environment starts


     Reading xml data from directory:

     ./outdir/b2n2.save/

     IMPORTANT: XC functional enforced from input :
     Exchange-correlation= PBE
                           (   1   4   3   4   0   0   0)
     Any further DFT definition will be discarded
     Please, verify this is what you really want


     G-vector sticks info
     --------------------
     sticks:   dense  smooth     PW     G-vecs:    dense   smooth      PW
     Sum        1043    1043    309                74509    74509   11931

     Using Slab Decomposition


     Check: negative core charge=   -0.000004

     negative rho (up, down):  6.376E-06 0.000E+00
     Reading collected, re-writing distributed wavefunctions
     high-symmetry point:  0.0000 0.0000 0.0000   x coordinate   0.0000
     high-symmetry point:  0.5000 0.0000 0.0000   x coordinate   0.5000
     high-symmetry point:  0.5000 0.9140 0.0000   x coordinate   1.4140
     high-symmetry point:  0.0000 0.9140 0.0000   x coordinate   1.9140
     high-symmetry point:  0.0000 0.0000 0.0000   x coordinate   2.8280
     high-symmetry point:  0.5000 0.9140 0.0000   x coordinate   3.8698

     Plottable bands (eV) written to file b2n2.bands.pp.dat.gnu
     Bands written to file b2n2.bands.pp.dat

 **************************************************************************

                    xk=(   0.00000,   0.00000,   0.00000  )

     point group C_s (m)    
     there are  2 classes
     the character table:

       E     s    
A'     1.00  1.00
A''    1.00 -1.00

     the symmetry operations in each class and the name of the first element:

     E        1
                                                                 
     s        2
                                                                 

     Band symmetry, C_s (m)     point group:

     e(  1 -  1) =    -21.77015  eV     1   --> A'             
     e(  2 -  2) =    -16.07425  eV     1   --> A'             
     e(  3 -  3) =    -11.79867  eV     1   --> A'             
     e(  4 -  4) =     -7.96893  eV     1   --> A''            
     e(  5 -  5) =     -7.12886  eV     1   --> A'             
     e(  6 -  6) =     -4.25540  eV     1   --> A'             
     e(  7 -  7) =     -3.60843  eV     1   --> A''            
     e(  8 -  8) =     -2.96620  eV     1   --> A'             
     e(  9 -  9) =      1.37744  eV     1   --> A''            
     e( 10 - 10) =      2.15683  eV     1   --> A'             
     e( 11 - 11) =      4.27363  eV     1   --> A''            
     e( 12 - 12) =      4.55606  eV     1   --> A'             
     e( 13 - 13) =      4.91506  eV     1   --> A'             
     e( 14 - 14) =      7.43281  eV     1   --> A'             
     e( 15 - 15) =      8.39013  eV     1   --> A'             
     e( 16 - 16) =      9.00701  eV     1   --> A''            
     e( 17 - 17) =      9.44751  eV     1   --> A'             
     e( 18 - 18) =      9.57046  eV     1   --> A''            
     e( 19 - 19) =      9.61070  eV     1   --> A'             
     e( 20 - 20) =     10.65911  eV     1   --> A'             

 **************************************************************************

 **************************************************************************

                    xk=(   0.03333,   0.00000,   0.00000  )

     Band symmetry, C_s (m)     point group:

     e(  1 -  1) =    -21.76867  eV     1   --> A'             
     e(  2 -  2) =    -16.08720  eV     1   --> A'             
     e(  3 -  3) =    -11.77424  eV     1   --> A'             
     e(  4 -  4) =     -7.96416  eV     1   --> A''            
     e(  5 -  5) =     -7.12611  eV     1   --> A'             
     e(  6 -  6) =     -4.26085  eV     1   --> A'             
     e(  7 -  7) =     -3.62793  eV     1   --> A''            
     e(  8 -  8) =     -2.99783  eV     1   --> A'             
     e(  9 -  9) =      1.40302  eV     1   --> A''            
     e( 10 - 10) =      2.16398  eV     1   --> A'             
     e( 11 - 11) =      4.28322  eV     1   --> A''            
     e( 12 - 12) =      4.56168  eV     1   --> A'             
     e( 13 - 13) =      4.94440  eV     1   --> A'             
     e( 14 - 14) =      7.43385  eV     1   --> A'             
     e( 15 - 15) =      8.27335  eV     1   --> A'             
     e( 16 - 16) =      8.94336  eV     1   --> A''            
     e( 17 - 17) =      9.51351  eV     1   --> A'             
     e( 18 - 18) =      9.59888  eV     1   --> A''            
     e( 19 - 19) =      9.62894  eV     1   --> A'             
     e( 20 - 20) =     10.66152  eV     1   --> A'             

 **************************************************************************

 **************************************************************************

                    xk=(   0.06667,   0.00000,   0.00000  )

     Band symmetry, C_s (m)     point group:

     e(  1 -  1) =    -21.76428  eV     1   --> A'             
     e(  2 -  2) =    -16.12490  eV     1   --> A'             
     e(  3 -  3) =    -11.70217  eV     1   --> A'             
     e(  4 -  4) =     -7.94993  eV     1   --> A''            
     e(  5 -  5) =     -7.11793  eV     1   --> A'             
     e(  6 -  6) =     -4.27700  eV     1   --> A'             
     e(  7 -  7) =     -3.68487  eV     1   --> A''            
     e(  8 -  8) =     -3.09098  eV     1   --> A'             
     e(  9 -  9) =      1.47812  eV     1   --> A''            
     e( 10 - 10) =      2.18555  eV     1   --> A'             
     e( 11 - 11) =      4.31197  eV     1   --> A''            
     e( 12 - 12) =      4.57957  eV     1   --> A'             
     e( 13 - 13) =      5.02902  eV     1   --> A'             
     e( 14 - 14) =      7.43528  eV     1   --> A'             
     e( 15 - 15) =      8.00705  eV     1   --> A'             
     e( 16 - 16) =      8.78133  eV     1   --> A''            
     e( 17 - 17) =      9.59865  eV     1   --> A'             
     e( 18 - 18) =      9.65835  eV     1   --> A''            
     e( 19 - 19) =      9.68318  eV     1   --> A'             
     e( 20 - 20) =     10.70226  eV     1   --> A'             

 **************************************************************************

 **************************************************************************

                    xk=(   0.10000,   0.00000,   0.00000  )

     Band symmetry, C_s (m)     point group:

     e(  1 -  1) =    -21.75712  eV     1   --> A'             
     e(  2 -  2) =    -16.18414  eV     1   --> A'             
     e(  3 -  3) =    -11.58583  eV     1   --> A'             
     e(  4 -  4) =     -7.92646  eV     1   --> A''            
     e(  5 -  5) =     -7.10452  eV     1   --> A'             
     e(  6 -  6) =     -4.30325  eV     1   --> A'             
     e(  7 -  7) =     -3.77503  eV     1   --> A''            
     e(  8 -  8) =     -3.24070  eV     1   --> A'             
     e(  9 -  9) =      1.59818  eV     1   --> A''            
     e( 10 - 10) =      2.22184  eV     1   --> A'             
     e( 11 - 11) =      4.35986  eV     1   --> A''            
     e( 12 - 12) =      4.61148  eV     1   --> A'             
     e( 13 - 13) =      5.16047  eV     1   --> A'             
     e( 14 - 14) =      7.42285  eV     1   --> A'             
     e( 15 - 15) =      7.70178  eV     1   --> A'             
     e( 16 - 16) =      8.56112  eV     1   --> A''            
     e( 17 - 17) =      9.56434  eV     1   --> A'             
     e( 18 - 18) =      9.71426  eV     1   --> A''            
     e( 19 - 19) =      9.77349  eV     1   --> A'             
     e( 20 - 20) =     10.51285  eV     1   --> A''            

 **************************************************************************

 **************************************************************************

                    xk=(   0.13333,   0.00000,   0.00000  )

     Band symmetry, C_s (m)     point group:

     e(  1 -  1) =    -21.74747  eV     1   --> A'             
     e(  2 -  2) =    -16.26035  eV     1   --> A'             
     e(  3 -  3) =    -11.43007  eV     1   --> A'             
     e(  4 -  4) =     -7.89413  eV     1   --> A''            
     e(  5 -  5) =     -7.08624  eV     1   --> A'             
     e(  6 -  6) =     -4.33862  eV     1   --> A'             
     e(  7 -  7) =     -3.89241  eV     1   --> A''            
     e(  8 -  8) =     -3.43980  eV     1   --> A'             
     e(  9 -  9) =      1.75667  eV     1   --> A''            
     e( 10 - 10) =      2.27319  eV     1   --> A'             
     e( 11 - 11) =      4.42674  eV     1   --> A''            
     e( 12 - 12) =      4.65823  eV     1   --> A'             
     e( 13 - 13) =      5.32719  eV     1   --> A'             
     e( 14 - 14) =      7.26723  eV     1   --> A'             
     e( 15 - 15) =      7.52881  eV     1   --> A'             
     e( 16 - 16) =      8.30690  eV     1   --> A''            
     e( 17 - 17) =      9.40658  eV     1   --> A'             
     e( 18 - 18) =      9.73803  eV     1   --> A''            
     e( 19 - 19) =      9.89866  eV     1   --> A'             
     e( 20 - 20) =     10.35070  eV     1   --> A''            

 **************************************************************************

 **************************************************************************

                    xk=(   0.16667,   0.00000,   0.00000  )

     Band symmetry, C_s (m)     point group:

     e(  1 -  1) =    -21.73568  eV     1   --> A'             
     e(  2 -  2) =    -16.34837  eV     1   --> A'             
     e(  3 -  3) =    -11.24055  eV     1   --> A'             
     e(  4 -  4) =     -7.85351  eV     1   --> A''            
     e(  5 -  5) =     -7.06360  eV     1   --> A'             
     e(  6 -  6) =     -4.38179  eV     1   --> A'             
     e(  7 -  7) =     -4.03019  eV     1   --> A''            
     e(  8 -  8) =     -3.67983  eV     1   --> A'             
     e(  9 -  9) =      1.94612  eV     1   --> A''            
     e( 10 - 10) =      2.33991  eV     1   --> A'             
     e( 11 - 11) =      4.51230  eV     1   --> A''            
     e( 12 - 12) =      4.71980  eV     1   --> A'             
     e( 13 - 13) =      5.51398  eV     1   --> A'             
     e( 14 - 14) =      6.95565  eV     1   --> A'             
     e( 15 - 15) =      7.52096  eV     1   --> A'             
     e( 16 - 16) =      8.03401  eV     1   --> A''            
     e( 17 - 17) =      9.18027  eV     1   --> A'             
     e( 18 - 18) =      9.68746  eV     1   --> A''            
     e( 19 - 19) =     10.05698  eV     1   --> A'             
     e( 20 - 20) =     10.26146  eV     1   --> A''            

 **************************************************************************

 **************************************************************************

                    xk=(   0.20000,   0.00000,   0.00000  )

     Band symmetry, C_s (m)     point group:

     e(  1 -  1) =    -21.72219  eV     1   --> A'             
     e(  2 -  2) =    -16.44307  eV     1   --> A'             
     e(  3 -  3) =    -11.02316  eV     1   --> A'             
     e(  4 -  4) =     -7.80539  eV     1   --> A''            
     e(  5 -  5) =     -7.03726  eV     1   --> A'             
     e(  6 -  6) =     -4.43119  eV     1   --> A'             
     e(  7 -  7) =     -4.18159  eV     1   --> A''            
     e(  8 -  8) =     -3.95191  eV     1   --> A'             
     e(  9 -  9) =      2.15892  eV     1   --> A''            
     e( 10 - 10) =      2.42219  eV     1   --> A'             
     e( 11 - 11) =      4.61578  eV     1   --> A''            
     e( 12 - 12) =      4.79568  eV     1   --> A'             
     e( 13 - 13) =      5.69607  eV     1   --> A'             
     e( 14 - 14) =      6.64762  eV     1   --> A'             
     e( 15 - 15) =      7.53893  eV     1   --> A'             
     e( 16 - 16) =      7.75356  eV     1   --> A''            
     e( 17 - 17) =      8.92515  eV     1   --> A'             
     e( 18 - 18) =      9.54193  eV     1   --> A''            
     e( 19 - 19) =     10.24659  eV     1   --> A'             
     e( 20 - 20) =     10.26540  eV     1   --> A''            

 **************************************************************************

 **************************************************************************

                    xk=(   0.23333,   0.00000,   0.00000  )

     Band symmetry, C_s (m)     point group:

     e(  1 -  1) =    -21.70755  eV     1   --> A'             
     e(  2 -  2) =    -16.53971  eV     1   --> A'             
     e(  3 -  3) =    -10.78383  eV     1   --> A'             
     e(  4 -  4) =     -7.75089  eV     1   --> A''            
     e(  5 -  5) =     -7.00809  eV     1   --> A'             
     e(  6 -  6) =     -4.48514  eV     1   --> A'             
     e(  7 -  7) =     -4.34020  eV     1   --> A''            
     e(  8 -  8) =     -4.24706  eV     1   --> A'             
     e(  9 -  9) =      2.38778  eV     1   --> A''            
     e( 10 - 10) =      2.52012  eV     1   --> A'             
     e( 11 - 11) =      4.73560  eV     1   --> A''            
     e( 12 - 12) =      4.88483  eV     1   --> A'             
     e( 13 - 13) =      5.80945  eV     1   --> A'             
     e( 14 - 14) =      6.41534  eV     1   --> A'             
     e( 15 - 15) =      7.47446  eV     1   --> A''            
     e( 16 - 16) =      7.56561  eV     1   --> A'             
     e( 17 - 17) =      8.66410  eV     1   --> A'             
     e( 18 - 18) =      9.33479  eV     1   --> A''            
     e( 19 - 19) =     10.32987  eV     1   --> A''            
     e( 20 - 20) =     10.46516  eV     1   --> A'             

 **************************************************************************

 **************************************************************************

                    xk=(   0.26667,   0.00000,   0.00000  )

     Band symmetry, C_s (m)     point group:

     e(  1 -  1) =    -21.69235  eV     1   --> A'             
     e(  2 -  2) =    -16.63416  eV     1   --> A'             
     e(  3 -  3) =    -10.52858  eV     1   --> A'             
     e(  4 -  4) =     -7.69145  eV     1   --> A''            
     e(  5 -  5) =     -6.97712  eV     1   --> A'             
     e(  6 -  6) =     -4.56666  eV     1   --> A'             
     e(  7 -  7) =     -4.53158  eV     1   --> A'             
     e(  8 -  8) =     -4.50007  eV     1   --> A''            
     e(  9 -  9) =      2.62592  eV     1   --> A''            
     e( 10 - 10) =      2.63371  eV     1   --> A'             
     e( 11 - 11) =      4.86866  eV     1   --> A''            
     e( 12 - 12) =      4.98488  eV     1   --> A'             
     e( 13 - 13) =      5.72274  eV     1   --> A'             
     e( 14 - 14) =      6.38121  eV     1   --> A'             
     e( 15 - 15) =      7.20495  eV     1   --> A''            
     e( 16 - 16) =      7.59912  eV     1   --> A'             
     e( 17 - 17) =      8.41247  eV     1   --> A'             
     e( 18 - 18) =      9.09669  eV     1   --> A''            
     e( 19 - 19) =     10.42566  eV     1   --> A''            
     e( 20 - 20) =     10.70973  eV     1   --> A'             

 **************************************************************************

 **************************************************************************

                    xk=(   0.30000,   0.00000,   0.00000  )

     Band symmetry, C_s (m)     point group:

     e(  1 -  1) =    -21.67725  eV     1   --> A'             
     e(  2 -  2) =    -16.72285  eV     1   --> A'             
     e(  3 -  3) =    -10.26387  eV     1   --> A'             
     e(  4 -  4) =     -7.62900  eV     1   --> A''            
     e(  5 -  5) =     -6.94560  eV     1   --> A'             
     e(  6 -  6) =     -4.87586  eV     1   --> A'             
     e(  7 -  7) =     -4.65565  eV     1   --> A''            
     e(  8 -  8) =     -4.59439  eV     1   --> A'             
     e(  9 -  9) =      2.76287  eV     1   --> A'             
     e( 10 - 10) =      2.86695  eV     1   --> A''            
     e( 11 - 11) =      5.00892  eV     1   --> A''            
     e( 12 - 12) =      5.08579  eV     1   --> A'             
     e( 13 - 13) =      5.49550  eV     1   --> A'             
     e( 14 - 14) =      6.47819  eV     1   --> A'             
     e( 15 - 15) =      6.95449  eV     1   --> A''            
     e( 16 - 16) =      7.63994  eV     1   --> A'             
     e( 17 - 17) =      8.18397  eV     1   --> A'             
     e( 18 - 18) =      8.84228  eV     1   --> A''            
     e( 19 - 19) =     10.54014  eV     1   --> A''            
     e( 20 - 20) =     10.97593  eV     1   --> A'             

 **************************************************************************

 **************************************************************************

                    xk=(   0.33333,   0.00000,   0.00000  )

     Band symmetry, C_s (m)     point group:

     e(  1 -  1) =    -21.66294  eV     1   --> A'             
     e(  2 -  2) =    -16.80278  eV     1   --> A'             
     e(  3 -  3) =     -9.99728  eV     1   --> A'             
     e(  4 -  4) =     -7.56607  eV     1   --> A''            
     e(  5 -  5) =     -6.91492  eV     1   --> A'             
     e(  6 -  6) =     -5.18886  eV     1   --> A'             
     e(  7 -  7) =     -4.80154  eV     1   --> A''            
     e(  8 -  8) =     -4.64751  eV     1   --> A'             
     e(  9 -  9) =      2.90745  eV     1   --> A'             
     e( 10 - 10) =      3.10458  eV     1   --> A''            
     e( 11 - 11) =      5.09224  eV     1   --> A'             
     e( 12 - 12) =      5.14499  eV     1   --> A''            
     e( 13 - 13) =      5.34088  eV     1   --> A'             
     e( 14 - 14) =      6.56662  eV     1   --> A'             
     e( 15 - 15) =      6.73657  eV     1   --> A''            
     e( 16 - 16) =      7.68839  eV     1   --> A'             
     e( 17 - 17) =      7.99424  eV     1   --> A'             
     e( 18 - 18) =      8.58004  eV     1   --> A''            
     e( 19 - 19) =     10.66717  eV     1   --> A''            
     e( 20 - 20) =     11.21017  eV     1   --> A'             

 **************************************************************************

 **************************************************************************

                    xk=(   0.36667,   0.00000,   0.00000  )

     Band symmetry, C_s (m)     point group:

     e(  1 -  1) =    -21.65009  eV     1   --> A'             
     e(  2 -  2) =    -16.87149  eV     1   --> A'             
     e(  3 -  3) =     -9.73851  eV     1   --> A'             
     e(  4 -  4) =     -7.50581  eV     1   --> A''            
     e(  5 -  5) =     -6.88665  eV     1   --> A'             
     e(  6 -  6) =     -5.48768  eV     1   --> A'             
     e(  7 -  7) =     -4.93234  eV     1   --> A''            
     e(  8 -  8) =     -4.69527  eV     1   --> A'             
     e(  9 -  9) =      3.06723  eV     1   --> A'             
     e( 10 - 10) =      3.33186  eV     1   --> A''            
     e( 11 - 11) =      4.87011  eV     1   --> A'             
     e( 12 - 12) =      5.25667  eV     1   --> A''            
     e( 13 - 13) =      5.42580  eV     1   --> A'             
     e( 14 - 14) =      6.57235  eV     1   --> A''            
     e( 15 - 15) =      6.59308  eV     1   --> A'             
     e( 16 - 16) =      7.73653  eV     1   --> A'             
     e( 17 - 17) =      7.86475  eV     1   --> A'             
     e( 18 - 18) =      8.31759  eV     1   --> A''            
     e( 19 - 19) =     10.80185  eV     1   --> A''            
     e( 20 - 20) =     11.25667  eV     1   --> A'             

 **************************************************************************

 **************************************************************************

                    xk=(   0.40000,   0.00000,   0.00000  )

     Band symmetry, C_s (m)     point group:

     e(  1 -  1) =    -21.63933  eV     1   --> A'             
     e(  2 -  2) =    -16.92698  eV     1   --> A'             
     e(  3 -  3) =     -9.50089  eV     1   --> A'             
     e(  4 -  4) =     -7.45209  eV     1   --> A''            
     e(  5 -  5) =     -6.86238  eV     1   --> A'             
     e(  6 -  6) =     -5.75767  eV     1   --> A'             
     e(  7 -  7) =     -5.04252  eV     1   --> A''            
     e(  8 -  8) =     -4.73548  eV     1   --> A'             
     e(  9 -  9) =      3.24179  eV     1   --> A'             
     e( 10 - 10) =      3.53979  eV     1   --> A''            
     e( 11 - 11) =      4.60902  eV     1   --> A'             
     e( 12 - 12) =      5.31688  eV     1   --> A''            
     e( 13 - 13) =      5.56823  eV     1   --> A'             
     e( 14 - 14) =      6.48871  eV     1   --> A''            
     e( 15 - 15) =      6.54400  eV     1   --> A'             
     e( 16 - 16) =      7.73160  eV     1   --> A'             
     e( 17 - 17) =      7.84704  eV     1   --> A'             
     e( 18 - 18) =      8.06470  eV     1   --> A''            
     e( 19 - 19) =     10.93769  eV     1   --> A''            
     e( 20 - 20) =     11.30494  eV     1   --> A'             

 **************************************************************************

 **************************************************************************

                    xk=(   0.43333,   0.00000,   0.00000  )

     Band symmetry, C_s (m)     point group:

     e(  1 -  1) =    -21.63121  eV     1   --> A'             
     e(  2 -  2) =    -16.96771  eV     1   --> A'             
     e(  3 -  3) =     -9.30295  eV     1   --> A'             
     e(  4 -  4) =     -7.40921  eV     1   --> A''            
     e(  5 -  5) =     -6.84364  eV     1   --> A'             
     e(  6 -  6) =     -5.97938  eV     1   --> A'             
     e(  7 -  7) =     -5.12656  eV     1   --> A''            
     e(  8 -  8) =     -4.76600  eV     1   --> A'             
     e(  9 -  9) =      3.43015  eV     1   --> A'             
     e( 10 - 10) =      3.71493  eV     1   --> A''            
     e( 11 - 11) =      4.35361  eV     1   --> A'             
     e( 12 - 12) =      5.31452  eV     1   --> A''            
     e( 13 - 13) =      5.72420  eV     1   --> A'             
     e( 14 - 14) =      6.43501  eV     1   --> A'             
     e( 15 - 15) =      6.49429  eV     1   --> A''            
     e( 16 - 16) =      7.69855  eV     1   --> A'             
     e( 17 - 17) =      7.83745  eV     1   --> A''            
     e( 18 - 18) =      7.89417  eV     1   --> A'             
     e( 19 - 19) =     11.06354  eV     1   --> A''            
     e( 20 - 20) =     11.35644  eV     1   --> A'             

 **************************************************************************

 **************************************************************************

                    xk=(   0.46667,   0.00000,   0.00000  )

     Band symmetry, C_s (m)     point group:

     e(  1 -  1) =    -21.62616  eV     1   --> A'             
     e(  2 -  2) =    -16.99259  eV     1   --> A'             
     e(  3 -  3) =     -9.16833  eV     1   --> A'             
     e(  4 -  4) =     -7.38134  eV     1   --> A''            
     e(  5 -  5) =     -6.83177  eV     1   --> A'             
     e(  6 -  6) =     -6.12854  eV     1   --> A'             
     e(  7 -  7) =     -5.17943  eV     1   --> A''            
     e(  8 -  8) =     -4.78509  eV     1   --> A'             
     e(  9 -  9) =      3.62843  eV     1   --> A'             
     e( 10 - 10) =      3.83695  eV     1   --> A''            
     e( 11 - 11) =      4.11398  eV     1   --> A'             
     e( 12 - 12) =      5.27976  eV     1   --> A''            
     e( 13 - 13) =      5.87858  eV     1   --> A'             
     e( 14 - 14) =      6.29873  eV     1   --> A'             
     e( 15 - 15) =      6.54934  eV     1   --> A''            
     e( 16 - 16) =      7.66582  eV     1   --> A''            
     e( 17 - 17) =      7.68203  eV     1   --> A'             
     e( 18 - 18) =      7.93251  eV     1   --> A'             
     e( 19 - 19) =     11.15941  eV     1   --> A''            
     e( 20 - 20) =     11.39855  eV     1   --> A'             

 **************************************************************************

 **************************************************************************

                    xk=(   0.50000,   0.00000,   0.00000  )

     Band symmetry, C_s (m)     point group:

     e(  1 -  1) =    -21.62444  eV     1   --> A'             
     e(  2 -  2) =    -17.00096  eV     1   --> A'             
     e(  3 -  3) =     -9.12008  eV     1   --> A'             
     e(  4 -  4) =     -7.37166  eV     1   --> A''            
     e(  5 -  5) =     -6.82769  eV     1   --> A'             
     e(  6 -  6) =     -6.18171  eV     1   --> A'             
     e(  7 -  7) =     -5.19750  eV     1   --> A''            
     e(  8 -  8) =     -4.79159  eV     1   --> A'             
     e(  9 -  9) =      3.77888  eV     1   --> A'             
     e( 10 - 10) =      3.88169  eV     1   --> A''            
     e( 11 - 11) =      3.94961  eV     1   --> A'             
     e( 12 - 12) =      5.26069  eV     1   --> A''            
     e( 13 - 13) =      5.97100  eV     1   --> A'             
     e( 14 - 14) =      6.21061  eV     1   --> A'             
     e( 15 - 15) =      6.58146  eV     1   --> A''            
     e( 16 - 16) =      7.59825  eV     1   --> A''            
     e( 17 - 17) =      7.67749  eV     1   --> A'             
     e( 18 - 18) =      7.94653  eV     1   --> A'             
     e( 19 - 19) =     11.19680  eV     1   --> A''            
     e( 20 - 20) =     11.41525  eV     1   --> A'             

 **************************************************************************

 **************************************************************************

                    xk=(   0.50000,   0.04570,   0.00000  )

     Band symmetry, C_s (m)     point group:

     e(  1 -  1) =    -21.61659  eV     1   --> A'             
     e(  2 -  2) =    -16.99410  eV     1   --> A'             
     e(  3 -  3) =     -9.12026  eV     1   --> A'             
     e(  4 -  4) =     -7.36160  eV     1   --> A''            
     e(  5 -  5) =     -6.86957  eV     1   --> A'             
     e(  6 -  6) =     -6.17330  eV     1   --> A'             
     e(  7 -  7) =     -5.18476  eV     1   --> A''            
     e(  8 -  8) =     -4.82527  eV     1   --> A'             
     e(  9 -  9) =      3.79708  eV     1   --> A'             
     e( 10 - 10) =      3.88298  eV     1   --> A''            
     e( 11 - 11) =      3.96638  eV     1   --> A'             
     e( 12 - 12) =      5.26963  eV     1   --> A''            
     e( 13 - 13) =      6.00038  eV     1   --> A'             
     e( 14 - 14) =      6.22887  eV     1   --> A'             
     e( 15 - 15) =      6.58770  eV     1   --> A''            
     e( 16 - 16) =      7.58772  eV     1   --> A''            
     e( 17 - 17) =      7.71624  eV     1   --> A'             
     e( 18 - 18) =      7.93613  eV     1   --> A'             
     e( 19 - 19) =     11.21073  eV     1   --> A''            
     e( 20 - 20) =     11.37801  eV     1   --> A'             

 **************************************************************************

 **************************************************************************

                    xk=(   0.50000,   0.09140,   0.00000  )

     Band symmetry, C_s (m)     point group:

     e(  1 -  1) =    -21.59310  eV     1   --> A'             
     e(  2 -  2) =    -16.97356  eV     1   --> A'             
     e(  3 -  3) =     -9.12096  eV     1   --> A'             
     e(  4 -  4) =     -7.33152  eV     1   --> A''            
     e(  5 -  5) =     -6.99248  eV     1   --> A'             
     e(  6 -  6) =     -6.14863  eV     1   --> A'             
     e(  7 -  7) =     -5.14656  eV     1   --> A''            
     e(  8 -  8) =     -4.92396  eV     1   --> A'             
     e(  9 -  9) =      3.85087  eV     1   --> A'             
     e( 10 - 10) =      3.88607  eV     1   --> A''            
     e( 11 - 11) =      4.01633  eV     1   --> A'             
     e( 12 - 12) =      5.29564  eV     1   --> A''            
     e( 13 - 13) =      6.08520  eV     1   --> A'             
     e( 14 - 14) =      6.28175  eV     1   --> A'             
     e( 15 - 15) =      6.60656  eV     1   --> A''            
     e( 16 - 16) =      7.55649  eV     1   --> A''            
     e( 17 - 17) =      7.83359  eV     1   --> A'             
     e( 18 - 18) =      7.89972  eV     1   --> A'             
     e( 19 - 19) =     11.25253  eV     1   --> A''            
     e( 20 - 20) =     11.29934  eV     1   --> A'             

 **************************************************************************

 **************************************************************************

                    xk=(   0.50000,   0.13710,   0.00000  )

     Band symmetry, C_s (m)     point group:

     e(  1 -  1) =    -21.55419  eV     1   --> A'             
     e(  2 -  2) =    -16.93952  eV     1   --> A'             
     e(  3 -  3) =     -9.12260  eV     1   --> A'             
     e(  4 -  4) =     -7.28166  eV     1   --> A''            
     e(  5 -  5) =     -7.18876  eV     1   --> A'             
     e(  6 -  6) =     -6.10974  eV     1   --> A'             
     e(  7 -  7) =     -5.08299  eV     1   --> A''            
     e(  8 -  8) =     -5.08037  eV     1   --> A'             
     e(  9 -  9) =      3.88867  eV     1   --> A''            
     e( 10 - 10) =      3.93813  eV     1   --> A'             
     e( 11 - 11) =      4.09851  eV     1   --> A'             
     e( 12 - 12) =      5.33603  eV     1   --> A''            
     e( 13 - 13) =      6.21663  eV     1   --> A'             
     e( 14 - 14) =      6.36316  eV     1   --> A'             
     e( 15 - 15) =      6.63856  eV     1   --> A''            
     e( 16 - 16) =      7.50594  eV     1   --> A''            
     e( 17 - 17) =      7.82487  eV     1   --> A'             
     e( 18 - 18) =      8.03179  eV     1   --> A'             
     e( 19 - 19) =     11.23908  eV     1   --> A'             
     e( 20 - 20) =     11.32219  eV     1   --> A''            

 **************************************************************************

 **************************************************************************

                    xk=(   0.50000,   0.18280,   0.00000  )

     Band symmetry, C_s (m)     point group:

     e(  1 -  1) =    -21.50024  eV     1   --> A'             
     e(  2 -  2) =    -16.89227  eV     1   --> A'             
     e(  3 -  3) =     -9.12612  eV     1   --> A'             
     e(  4 -  4) =     -7.44697  eV     1   --> A'             
     e(  5 -  5) =     -7.21247  eV     1   --> A''            
     e(  6 -  6) =     -6.06281  eV     1   --> A'             
     e(  7 -  7) =     -5.28070  eV     1   --> A'             
     e(  8 -  8) =     -4.99419  eV     1   --> A''            
     e(  9 -  9) =      3.88682  eV     1   --> A''            
     e( 10 - 10) =      4.05640  eV     1   --> A'             
     e( 11 - 11) =      4.21170  eV     1   --> A'             
     e( 12 - 12) =      5.38554  eV     1   --> A''            
     e( 13 - 13) =      6.38343  eV     1   --> A'             
     e( 14 - 14) =      6.46054  eV     1   --> A'             
     e( 15 - 15) =      6.68466  eV     1   --> A''            
     e( 16 - 16) =      7.43953  eV     1   --> A''            
     e( 17 - 17) =      7.70296  eV     1   --> A'             
     e( 18 - 18) =      8.31130  eV     1   --> A'             
     e( 19 - 19) =     11.24255  eV     1   --> A'             
     e( 20 - 20) =     11.41967  eV     1   --> A''            

 **************************************************************************

 **************************************************************************

                    xk=(   0.50000,   0.22850,   0.00000  )

     Band symmetry, C_s (m)     point group:

     e(  1 -  1) =    -21.43181  eV     1   --> A'             
     e(  2 -  2) =    -16.83224  eV     1   --> A'             
     e(  3 -  3) =     -9.13355  eV     1   --> A'             
     e(  4 -  4) =     -7.75296  eV     1   --> A'             
     e(  5 -  5) =     -7.12458  eV     1   --> A''            
     e(  6 -  6) =     -6.03018  eV     1   --> A'             
     e(  7 -  7) =     -5.49366  eV     1   --> A'             
     e(  8 -  8) =     -4.88035  eV     1   --> A''            
     e(  9 -  9) =      3.87505  eV     1   --> A''            
     e( 10 - 10) =      4.20361  eV     1   --> A'             
     e( 11 - 11) =      4.35467  eV     1   --> A'             
     e( 12 - 12) =      5.43487  eV     1   --> A''            
     e( 13 - 13) =      6.54545  eV     1   --> A'             
     e( 14 - 14) =      6.57567  eV     1   --> A'             
     e( 15 - 15) =      6.74643  eV     1   --> A''            
     e( 16 - 16) =      7.36480  eV     1   --> A''            
     e( 17 - 17) =      7.54957  eV     1   --> A'             
     e( 18 - 18) =      8.66705  eV     1   --> A'             
     e( 19 - 19) =     11.33091  eV     1   --> A'             
     e( 20 - 20) =     11.54493  eV     1   --> A''            

 **************************************************************************

 **************************************************************************

                    xk=(   0.50000,   0.27420,   0.00000  )

     Band symmetry, C_s (m)     point group:

     e(  1 -  1) =    -21.34961  eV     1   --> A'             
     e(  2 -  2) =    -16.76000  eV     1   --> A'             
     e(  3 -  3) =     -9.14975  eV     1   --> A'             
     e(  4 -  4) =     -8.08947  eV     1   --> A'             
     e(  5 -  5) =     -7.01885  eV     1   --> A''            
     e(  6 -  6) =     -6.09483  eV     1   --> A'             
     e(  7 -  7) =     -5.62705  eV     1   --> A'             
     e(  8 -  8) =     -4.74175  eV     1   --> A''            
     e(  9 -  9) =      3.84635  eV     1   --> A''            
     e( 10 - 10) =      4.37837  eV     1   --> A'             
     e( 11 - 11) =      4.52637  eV     1   --> A'             
     e( 12 - 12) =      5.46883  eV     1   --> A''            
     e( 13 - 13) =      6.54911  eV     1   --> A'             
     e( 14 - 14) =      6.78719  eV     1   --> A'             
     e( 15 - 15) =      6.82609  eV     1   --> A''            
     e( 16 - 16) =      7.29591  eV     1   --> A''            
     e( 17 - 17) =      7.43460  eV     1   --> A'             
     e( 18 - 18) =      9.08515  eV     1   --> A'             
     e( 19 - 19) =     11.50180  eV     1   --> A'             
     e( 20 - 20) =     11.52498  eV     1   --> A'             

 **************************************************************************

 **************************************************************************

                    xk=(   0.50000,   0.31990,   0.00000  )

     Band symmetry, C_s (m)     point group:

     e(  1 -  1) =    -21.25460  eV     1   --> A'             
     e(  2 -  2) =    -16.67630  eV     1   --> A'             
     e(  3 -  3) =     -9.18865  eV     1   --> A'             
     e(  4 -  4) =     -8.43088  eV     1   --> A'             
     e(  5 -  5) =     -6.89639  eV     1   --> A''            
     e(  6 -  6) =     -6.32522  eV     1   --> A'             
     e(  7 -  7) =     -5.60367  eV     1   --> A'             
     e(  8 -  8) =     -4.57874  eV     1   --> A''            
     e(  9 -  9) =      3.79273  eV     1   --> A''            
     e( 10 - 10) =      4.57996  eV     1   --> A'             
     e( 11 - 11) =      4.72586  eV     1   --> A'             
     e( 12 - 12) =      5.46560  eV     1   --> A''            
     e( 13 - 13) =      6.38493  eV     1   --> A'             
     e( 14 - 14) =      6.92656  eV     1   --> A''            
     e( 15 - 15) =      7.01549  eV     1   --> A'             
     e( 16 - 16) =      7.25497  eV     1   --> A''            
     e( 17 - 17) =      7.45644  eV     1   --> A'             
     e( 18 - 18) =      9.53774  eV     1   --> A'             
     e( 19 - 19) =     11.36450  eV     1   --> A'             
     e( 20 - 20) =     11.73575  eV     1   --> A'             

 **************************************************************************

 **************************************************************************

                    xk=(   0.50000,   0.36560,   0.00000  )

     Band symmetry, C_s (m)     point group:

     e(  1 -  1) =    -21.14800  eV     1   --> A'             
     e(  2 -  2) =    -16.58211  eV     1   --> A'             
     e(  3 -  3) =     -9.29352  eV     1   --> A'             
     e(  4 -  4) =     -8.72324  eV     1   --> A'             
     e(  5 -  5) =     -6.75863  eV     1   --> A''            
     e(  6 -  6) =     -6.63543  eV     1   --> A'             
     e(  7 -  7) =     -5.50160  eV     1   --> A'             
     e(  8 -  8) =     -4.39178  eV     1   --> A''            
     e(  9 -  9) =      3.70606  eV     1   --> A''            
     e( 10 - 10) =      4.80806  eV     1   --> A'             
     e( 11 - 11) =      4.95172  eV     1   --> A'             
     e( 12 - 12) =      5.40175  eV     1   --> A''            
     e( 13 - 13) =      6.07700  eV     1   --> A'             
     e( 14 - 14) =      7.05114  eV     1   --> A''            
     e( 15 - 15) =      7.26029  eV     1   --> A'             
     e( 16 - 16) =      7.26766  eV     1   --> A''            
     e( 17 - 17) =      7.60743  eV     1   --> A'             
     e( 18 - 18) =      9.96530  eV     1   --> A'             
     e( 19 - 19) =     11.28091  eV     1   --> A'             
     e( 20 - 20) =     12.00354  eV     1   --> A'             

 **************************************************************************

 **************************************************************************

                    xk=(   0.50000,   0.41130,   0.00000  )

     Band symmetry, C_s (m)     point group:

     e(  1 -  1) =    -21.03129  eV     1   --> A'             
     e(  2 -  2) =    -16.47864  eV     1   --> A'             
     e(  3 -  3) =     -9.53257  eV     1   --> A'             
     e(  4 -  4) =     -8.88887  eV     1   --> A'             
     e(  5 -  5) =     -6.97240  eV     1   --> A'             
     e(  6 -  6) =     -6.60736  eV     1   --> A''            
     e(  7 -  7) =     -5.36720  eV     1   --> A'             
     e(  8 -  8) =     -4.18144  eV     1   --> A''            
     e(  9 -  9) =      3.57919  eV     1   --> A''            
     e( 10 - 10) =      5.06253  eV     1   --> A'             
     e( 11 - 11) =      5.19700  eV     1   --> A'             
     e( 12 - 12) =      5.26426  eV     1   --> A''            
     e( 13 - 13) =      5.70404  eV     1   --> A'             
     e( 14 - 14) =      7.20304  eV     1   --> A''            
     e( 15 - 15) =      7.35135  eV     1   --> A''            
     e( 16 - 16) =      7.52184  eV     1   --> A'             
     e( 17 - 17) =      7.83053  eV     1   --> A'             
     e( 18 - 18) =     10.24252  eV     1   --> A'             
     e( 19 - 19) =     11.38634  eV     1   --> A'             
     e( 20 - 20) =     12.27030  eV     1   --> A'             

 **************************************************************************

 **************************************************************************

                    xk=(   0.50000,   0.45700,   0.00000  )

     Band symmetry, C_s (m)     point group:

     e(  1 -  1) =    -20.90632  eV     1   --> A'             
     e(  2 -  2) =    -16.36740  eV     1   --> A'             
     e(  3 -  3) =     -9.87320  eV     1   --> A'             
     e(  4 -  4) =     -8.95194  eV     1   --> A'             
     e(  5 -  5) =     -7.31720  eV     1   --> A'             
     e(  6 -  6) =     -6.44481  eV     1   --> A''            
     e(  7 -  7) =     -5.21381  eV     1   --> A'             
     e(  8 -  8) =     -3.94845  eV     1   --> A''            
     e(  9 -  9) =      3.40730  eV     1   --> A''            
     e( 10 - 10) =      5.05810  eV     1   --> A''            
     e( 11 - 11) =      5.23163  eV     1   --> A'             
     e( 12 - 12) =      5.34327  eV     1   --> A'             
     e( 13 - 13) =      5.53721  eV     1   --> A'             
     e( 14 - 14) =      7.38483  eV     1   --> A''            
     e( 15 - 15) =      7.50750  eV     1   --> A''            
     e( 16 - 16) =      7.79976  eV     1   --> A'             
     e( 17 - 17) =      8.09741  eV     1   --> A'             
     e( 18 - 18) =     10.29421  eV     1   --> A'             
     e( 19 - 19) =     11.73969  eV     1   --> A'             
     e( 20 - 20) =     12.37092  eV     1   --> A''            

 **************************************************************************

 **************************************************************************

                    xk=(   0.50000,   0.50270,   0.00000  )

     Band symmetry, C_s (m)     point group:

     e(  1 -  1) =    -20.77535  eV     1   --> A'             
     e(  2 -  2) =    -16.25027  eV     1   --> A'             
     e(  3 -  3) =    -10.24424  eV     1   --> A'             
     e(  4 -  4) =     -8.97601  eV     1   --> A'             
     e(  5 -  5) =     -7.65944  eV     1   --> A'             
     e(  6 -  6) =     -6.27373  eV     1   --> A''            
     e(  7 -  7) =     -5.04737  eV     1   --> A'             
     e(  8 -  8) =     -3.69375  eV     1   --> A''            
     e(  9 -  9) =      3.18878  eV     1   --> A''            
     e( 10 - 10) =      4.80032  eV     1   --> A''            
     e( 11 - 11) =      4.83105  eV     1   --> A'             
     e( 12 - 12) =      5.65003  eV     1   --> A'             
     e( 13 - 13) =      5.82284  eV     1   --> A'             
     e( 14 - 14) =      7.59797  eV     1   --> A''            
     e( 15 - 15) =      7.72713  eV     1   --> A''            
     e( 16 - 16) =      8.09176  eV     1   --> A'             
     e( 17 - 17) =      8.39718  eV     1   --> A'             
     e( 18 - 18) =     10.23222  eV     1   --> A'             
     e( 19 - 19) =     12.20788  eV     1   --> A'             
     e( 20 - 20) =     12.36469  eV     1   --> A''            

 **************************************************************************

 **************************************************************************

                    xk=(   0.50000,   0.54840,   0.00000  )

     Band symmetry, C_s (m)     point group:

     e(  1 -  1) =    -20.64108  eV     1   --> A'             
     e(  2 -  2) =    -16.12956  eV     1   --> A'             
     e(  3 -  3) =    -10.61380  eV     1   --> A'             
     e(  4 -  4) =     -8.98594  eV     1   --> A'             
     e(  5 -  5) =     -7.99137  eV     1   --> A'             
     e(  6 -  6) =     -6.09749  eV     1   --> A''            
     e(  7 -  7) =     -4.87227  eV     1   --> A'             
     e(  8 -  8) =     -3.41859  eV     1   --> A''            
     e(  9 -  9) =      2.92554  eV     1   --> A''            
     e( 10 - 10) =      4.41239  eV     1   --> A'             
     e( 11 - 11) =      4.51075  eV     1   --> A''            
     e( 12 - 12) =      5.98231  eV     1   --> A'             
     e( 13 - 13) =      6.15776  eV     1   --> A'             
     e( 14 - 14) =      7.84257  eV     1   --> A''            
     e( 15 - 15) =      7.99964  eV     1   --> A''            
     e( 16 - 16) =      8.39173  eV     1   --> A'             
     e( 17 - 17) =      8.72512  eV     1   --> A'             
     e( 18 - 18) =     10.15190  eV     1   --> A'             
     e( 19 - 19) =     12.36538  eV     1   --> A''            
     e( 20 - 20) =     12.66220  eV     1   --> A'             

 **************************************************************************

 **************************************************************************

                    xk=(   0.50000,   0.59410,   0.00000  )

     Band symmetry, C_s (m)     point group:

     e(  1 -  1) =    -20.50674  eV     1   --> A'             
     e(  2 -  2) =    -16.00807  eV     1   --> A'             
     e(  3 -  3) =    -10.96708  eV     1   --> A'             
     e(  4 -  4) =     -8.98985  eV     1   --> A'             
     e(  5 -  5) =     -8.30622  eV     1   --> A'             
     e(  6 -  6) =     -5.92019  eV     1   --> A''            
     e(  7 -  7) =     -4.69291  eV     1   --> A'             
     e(  8 -  8) =     -3.12462  eV     1   --> A''            
     e(  9 -  9) =      2.62267  eV     1   --> A''            
     e( 10 - 10) =      4.00584  eV     1   --> A'             
     e( 11 - 11) =      4.20765  eV     1   --> A''            
     e( 12 - 12) =      6.33913  eV     1   --> A'             
     e( 13 - 13) =      6.52255  eV     1   --> A'             
     e( 14 - 14) =      8.11736  eV     1   --> A''            
     e( 15 - 15) =      8.31673  eV     1   --> A''            
     e( 16 - 16) =      8.68541  eV     1   --> A'             
     e( 17 - 17) =      9.07869  eV     1   --> A'             
     e( 18 - 18) =     10.10074  eV     1   --> A'             
     e( 19 - 19) =     12.37259  eV     1   --> A''            
     e( 20 - 20) =     12.70211  eV     1   --> A'             

 **************************************************************************

 **************************************************************************

                    xk=(   0.50000,   0.63980,   0.00000  )

     Band symmetry, C_s (m)     point group:

     e(  1 -  1) =    -20.37610  eV     1   --> A'             
     e(  2 -  2) =    -15.88917  eV     1   --> A'             
     e(  3 -  3) =    -11.29440  eV     1   --> A'             
     e(  4 -  4) =     -8.99090  eV     1   --> A'             
     e(  5 -  5) =     -8.59762  eV     1   --> A'             
     e(  6 -  6) =     -5.74673  eV     1   --> A''            
     e(  7 -  7) =     -4.51435  eV     1   --> A'             
     e(  8 -  8) =     -2.81421  eV     1   --> A''            
     e(  9 -  9) =      2.28782  eV     1   --> A''            
     e( 10 - 10) =      3.62289  eV     1   --> A'             
     e( 11 - 11) =      3.90707  eV     1   --> A''            
     e( 12 - 12) =      6.71865  eV     1   --> A'             
     e( 13 - 13) =      6.91513  eV     1   --> A'             
     e( 14 - 14) =      8.41963  eV     1   --> A''            
     e( 15 - 15) =      8.67254  eV     1   --> A''            
     e( 16 - 16) =      8.94322  eV     1   --> A'             
     e( 17 - 17) =      9.45595  eV     1   --> A'             
     e( 18 - 18) =     10.12200  eV     1   --> A'             
     e( 19 - 19) =     12.37837  eV     1   --> A''            
     e( 20 - 20) =     12.57320  eV     1   --> A'             

 **************************************************************************

 **************************************************************************

                    xk=(   0.50000,   0.68550,   0.00000  )

     Band symmetry, C_s (m)     point group:

     e(  1 -  1) =    -20.25347  eV     1   --> A'             
     e(  2 -  2) =    -15.77678  eV     1   --> A'             
     e(  3 -  3) =    -11.58781  eV     1   --> A'             
     e(  4 -  4) =     -8.99056  eV     1   --> A'             
     e(  5 -  5) =     -8.85934  eV     1   --> A'             
     e(  6 -  6) =     -5.58282  eV     1   --> A''            
     e(  7 -  7) =     -4.34261  eV     1   --> A'             
     e(  8 -  8) =     -2.49086  eV     1   --> A''            
     e(  9 -  9) =      1.93062  eV     1   --> A''            
     e( 10 - 10) =      3.27339  eV     1   --> A'             
     e( 11 - 11) =      3.62335  eV     1   --> A''            
     e( 12 - 12) =      7.11725  eV     1   --> A'             
     e( 13 - 13) =      7.33462  eV     1   --> A'             
     e( 14 - 14) =      8.74494  eV     1   --> A''            
     e( 15 - 15) =      9.06294  eV     1   --> A''            
     e( 16 - 16) =      9.12464  eV     1   --> A'             
     e( 17 - 17) =      9.85473  eV     1   --> A'             
     e( 18 - 18) =     10.26420  eV     1   --> A'             
     e( 19 - 19) =     12.31607  eV     1   --> A'             
     e( 20 - 20) =     12.36590  eV     1   --> A''            

 **************************************************************************

 **************************************************************************

                    xk=(   0.50000,   0.73120,   0.00000  )

     Band symmetry, C_s (m)     point group:

     e(  1 -  1) =    -20.14357  eV     1   --> A'             
     e(  2 -  2) =    -15.67534  eV     1   --> A'             
     e(  3 -  3) =    -11.84016  eV     1   --> A'             
     e(  4 -  4) =     -9.08514  eV     1   --> A'             
     e(  5 -  5) =     -8.98963  eV     1   --> A'             
     e(  6 -  6) =     -5.43490  eV     1   --> A''            
     e(  7 -  7) =     -4.18483  eV     1   --> A'             
     e(  8 -  8) =     -2.16029  eV     1   --> A''            
     e(  9 -  9) =      1.56289  eV     1   --> A''            
     e( 10 - 10) =      2.96713  eV     1   --> A'             
     e( 11 - 11) =      3.36952  eV     1   --> A''            
     e( 12 - 12) =      7.52742  eV     1   --> A'             
     e( 13 - 13) =      7.78020  eV     1   --> A'             
     e( 14 - 14) =      9.08617  eV     1   --> A''            
     e( 15 - 15) =      9.22388  eV     1   --> A'             
     e( 16 - 16) =      9.48461  eV     1   --> A''            
     e( 17 - 17) =     10.27140  eV     1   --> A'             
     e( 18 - 18) =     10.54128  eV     1   --> A'             
     e( 19 - 19) =     11.92973  eV     1   --> A'             
     e( 20 - 20) =     12.24220  eV     1   --> A'             

 **************************************************************************

 **************************************************************************

                    xk=(   0.50000,   0.77690,   0.00000  )

     Band symmetry, C_s (m)     point group:

     e(  1 -  1) =    -20.05126  eV     1   --> A'             
     e(  2 -  2) =    -15.58957  eV     1   --> A'             
     e(  3 -  3) =    -12.04482  eV     1   --> A'             
     e(  4 -  4) =     -9.26894  eV     1   --> A'             
     e(  5 -  5) =     -8.98855  eV     1   --> A'             
     e(  6 -  6) =     -5.30985  eV     1   --> A''            
     e(  7 -  7) =     -4.04907  eV     1   --> A'             
     e(  8 -  8) =     -1.83264  eV     1   --> A''            
     e(  9 -  9) =      1.20031  eV     1   --> A''            
     e( 10 - 10) =      2.71413  eV     1   --> A'             
     e( 11 - 11) =      3.15739  eV     1   --> A''            
     e( 12 - 12) =      7.93190  eV     1   --> A'             
     e( 13 - 13) =      8.25076  eV     1   --> A'             
     e( 14 - 14) =      9.29070  eV     1   --> A'             
     e( 15 - 15) =      9.43108  eV     1   --> A''            
     e( 16 - 16) =      9.93427  eV     1   --> A''            
     e( 17 - 17) =     10.69445  eV     1   --> A'             
     e( 18 - 18) =     10.91685  eV     1   --> A'             
     e( 19 - 19) =     11.45861  eV     1   --> A'             
     e( 20 - 20) =     11.68366  eV     1   --> A'             

 **************************************************************************

 **************************************************************************

                    xk=(   0.50000,   0.82260,   0.00000  )

     Band symmetry, C_s (m)     point group:

     e(  1 -  1) =    -19.98124  eV     1   --> A'             
     e(  2 -  2) =    -15.52411  eV     1   --> A'             
     e(  3 -  3) =    -12.19590  eV     1   --> A'             
     e(  4 -  4) =     -9.40509  eV     1   --> A'             
     e(  5 -  5) =     -8.98762  eV     1   --> A'             
     e(  6 -  6) =     -5.21443  eV     1   --> A''            
     e(  7 -  7) =     -3.94382  eV     1   --> A'             
     e(  8 -  8) =     -1.52821  eV     1   --> A''            
     e(  9 -  9) =      0.86763  eV     1   --> A''            
     e( 10 - 10) =      2.52424  eV     1   --> A'             
     e( 11 - 11) =      2.99734  eV     1   --> A''            
     e( 12 - 12) =      8.28977  eV     1   --> A'             
     e( 13 - 13) =      8.74464  eV     1   --> A'             
     e( 14 - 14) =      9.39507  eV     1   --> A'             
     e( 15 - 15) =      9.75623  eV     1   --> A''            
     e( 16 - 16) =     10.40683  eV     1   --> A''            
     e( 17 - 17) =     10.84418  eV     1   --> A'             
     e( 18 - 18) =     11.10358  eV     1   --> A'             
     e( 19 - 19) =     11.22219  eV     1   --> A'             
     e( 20 - 20) =     11.37554  eV     1   --> A'             

 **************************************************************************

 **************************************************************************

                    xk=(   0.50000,   0.86830,   0.00000  )

     Band symmetry, C_s (m)     point group:

     e(  1 -  1) =    -19.93744  eV     1   --> A'             
     e(  2 -  2) =    -15.48299  eV     1   --> A'             
     e(  3 -  3) =    -12.28864  eV     1   --> A'             
     e(  4 -  4) =     -9.48889  eV     1   --> A'             
     e(  5 -  5) =     -8.98700  eV     1   --> A'             
     e(  6 -  6) =     -5.15447  eV     1   --> A''            
     e(  7 -  7) =     -3.87689  eV     1   --> A'             
     e(  8 -  8) =     -1.28994  eV     1   --> A''            
     e(  9 -  9) =      0.61109  eV     1   --> A''            
     e( 10 - 10) =      2.40616  eV     1   --> A'             
     e( 11 - 11) =      2.89767  eV     1   --> A''            
     e( 12 - 12) =      8.52886  eV     1   --> A'             
     e( 13 - 13) =      9.25867  eV     1   --> A'             
     e( 14 - 14) =      9.60708  eV     1   --> A'             
     e( 15 - 15) =     10.01343  eV     1   --> A''            
     e( 16 - 16) =     10.33854  eV     1   --> A'             
     e( 17 - 17) =     10.59133  eV     1   --> A'             
     e( 18 - 18) =     10.88654  eV     1   --> A''            
     e( 19 - 19) =     11.61779  eV     1   --> A'             
     e( 20 - 20) =     11.83722  eV     1   -->   ?

 **************************************************************************

 **************************************************************************

                    xk=(   0.50000,   0.91400,   0.00000  )

     Band symmetry, C_s (m)     point group:

     e(  1 -  1) =    -19.92252  eV     1   --> A'             
     e(  2 -  2) =    -15.46895  eV     1   --> A'             
     e(  3 -  3) =    -12.31992  eV     1   --> A'             
     e(  4 -  4) =     -9.51720  eV     1   --> A'             
     e(  5 -  5) =     -8.98678  eV     1   --> A'             
     e(  6 -  6) =     -5.13401  eV     1   --> A''            
     e(  7 -  7) =     -3.85389  eV     1   --> A'             
     e(  8 -  8) =     -1.19358  eV     1   --> A''            
     e(  9 -  9) =      0.50841  eV     1   --> A''            
     e( 10 - 10) =      2.36606  eV     1   --> A'             
     e( 11 - 11) =      2.86381  eV     1   --> A''            
     e( 12 - 12) =      8.60659  eV     1   --> A'             
     e( 13 - 13) =      9.73690  eV     1   --> A'             
     e( 14 - 14) =      9.82599  eV     1   --> A'             
     e( 15 - 15) =      9.85173  eV     1   --> A'             
     e( 16 - 16) =     10.11817  eV     1   --> A''            
     e( 17 - 17) =     10.27020  eV     1   --> A'             
     e( 18 - 18) =     11.21589  eV     1   --> A''            
     e( 19 - 19) =     11.74084  eV     1   --> A''            
     e( 20 - 20) =     11.75567  eV     1   --> A''            

 **************************************************************************

 **************************************************************************

                    xk=(   0.46667,   0.91400,   0.00000  )

     Band symmetry, C_s (m)     point group:

     e(  1 -  1) =    -19.92430  eV     1   --> A'             
     e(  2 -  2) =    -15.46150  eV     1   --> A'             
     e(  3 -  3) =    -12.32300  eV     1   --> A'             
     e(  4 -  4) =     -9.50875  eV     1   --> A'             
     e(  5 -  5) =     -9.00097  eV     1   --> A'             
     e(  6 -  6) =     -5.13573  eV     1   --> A''            
     e(  7 -  7) =     -3.86486  eV     1   --> A'             
     e(  8 -  8) =     -1.18925  eV     1   --> A''            
     e(  9 -  9) =      0.49864  eV     1   --> A''            
     e( 10 - 10) =      2.39280  eV     1   --> A'             
     e( 11 - 11) =      2.88196  eV     1   --> A''            
     e( 12 - 12) =      8.61569  eV     1   --> A'             
     e( 13 - 13) =      9.56651  eV     1   --> A'             
     e( 14 - 14) =      9.77868  eV     1   --> A'             
     e( 15 - 15) =     10.00378  eV     1   --> A'             
     e( 16 - 16) =     10.08231  eV     1   --> A''            
     e( 17 - 17) =     10.36830  eV     1   --> A'             
     e( 18 - 18) =     11.25624  eV     1   --> A''            
     e( 19 - 19) =     11.54184  eV     1   --> A''            
     e( 20 - 20) =     11.84587  eV     1   --> A'             

 **************************************************************************

 **************************************************************************

                    xk=(   0.43333,   0.91400,   0.00000  )

     Band symmetry, C_s (m)     point group:

     e(  1 -  1) =    -19.92952  eV     1   --> A'             
     e(  2 -  2) =    -15.43935  eV     1   --> A'             
     e(  3 -  3) =    -12.33204  eV     1   --> A'             
     e(  4 -  4) =     -9.48371  eV     1   --> A'             
     e(  5 -  5) =     -9.04286  eV     1   --> A'             
     e(  6 -  6) =     -5.14081  eV     1   --> A''            
     e(  7 -  7) =     -3.89734  eV     1   --> A'             
     e(  8 -  8) =     -1.17646  eV     1   --> A''            
     e(  9 -  9) =      0.47047  eV     1   --> A''            
     e( 10 - 10) =      2.47240  eV     1   --> A'             
     e( 11 - 11) =      2.93508  eV     1   --> A''            
     e( 12 - 12) =      8.63900  eV     1   --> A'             
     e( 13 - 13) =      9.36843  eV     1   --> A'             
     e( 14 - 14) =      9.65306  eV     1   --> A'             
     e( 15 - 15) =      9.98851  eV     1   --> A''            
     e( 16 - 16) =     10.22150  eV     1   --> A'             
     e( 17 - 17) =     10.57251  eV     1   --> A'             
     e( 18 - 18) =     11.34388  eV     1   --> A''            
     e( 19 - 19) =     11.36282  eV     1   --> A''            
     e( 20 - 20) =     11.71839  eV     1   --> A'             

 **************************************************************************

 **************************************************************************

                    xk=(   0.40000,   0.91400,   0.00000  )

     Band symmetry, C_s (m)     point group:

     e(  1 -  1) =    -19.93792  eV     1   --> A'             
     e(  2 -  2) =    -15.40321  eV     1   --> A'             
     e(  3 -  3) =    -12.34643  eV     1   --> A'             
     e(  4 -  4) =     -9.44307  eV     1   --> A'             
     e(  5 -  5) =     -9.11052  eV     1   --> A'             
     e(  6 -  6) =     -5.14897  eV     1   --> A''            
     e(  7 -  7) =     -3.95005  eV     1   --> A'             
     e(  8 -  8) =     -1.15575  eV     1   --> A''            
     e(  9 -  9) =      0.42699  eV     1   --> A''            
     e( 10 - 10) =      2.60305  eV     1   --> A'             
     e( 11 - 11) =      3.01952  eV     1   --> A''            
     e( 12 - 12) =      8.66367  eV     1   --> A'             
     e( 13 - 13) =      9.18035  eV     1   --> A'             
     e( 14 - 14) =      9.55165  eV     1   --> A'             
     e( 15 - 15) =      9.86206  eV     1   --> A''            
     e( 16 - 16) =     10.43254  eV     1   --> A'             
     e( 17 - 17) =     10.81637  eV     1   --> A'             
     e( 18 - 18) =     11.15608  eV     1   --> A''            
     e( 19 - 19) =     11.50717  eV     1   --> A''            
     e( 20 - 20) =     11.57355  eV     1   --> A'             

 **************************************************************************

 **************************************************************************

                    xk=(   0.36667,   0.91400,   0.00000  )

     Band symmetry, C_s (m)     point group:

     e(  1 -  1) =    -19.94904  eV     1   --> A'             
     e(  2 -  2) =    -15.35419  eV     1   --> A'             
     e(  3 -  3) =    -12.36526  eV     1   --> A'             
     e(  4 -  4) =     -9.38837  eV     1   --> A'             
     e(  5 -  5) =     -9.20088  eV     1   --> A'             
     e(  6 -  6) =     -5.15979  eV     1   --> A''            
     e(  7 -  7) =     -4.02094  eV     1   --> A'             
     e(  8 -  8) =     -1.12803  eV     1   --> A''            
     e(  9 -  9) =      0.37231  eV     1   --> A''            
     e( 10 - 10) =      2.78192  eV     1   --> A'             
     e( 11 - 11) =      3.13020  eV     1   --> A''            
     e( 12 - 12) =      8.66884  eV     1   --> A'             
     e( 13 - 13) =      9.00418  eV     1   --> A'             
     e( 14 - 14) =      9.50845  eV     1   --> A'             
     e( 15 - 15) =      9.72195  eV     1   --> A''            
     e( 16 - 16) =     10.61192  eV     1   --> A'             
     e( 17 - 17) =     10.97890  eV     1   --> A''            
     e( 18 - 18) =     11.08056  eV     1   --> A'             
     e( 19 - 19) =     11.44278  eV     1   --> A'             
     e( 20 - 20) =     11.57201  eV     1   --> A'             

 **************************************************************************

 **************************************************************************

                    xk=(   0.33333,   0.91400,   0.00000  )

     Band symmetry, C_s (m)     point group:

     e(  1 -  1) =    -19.96232  eV     1   --> A'             
     e(  2 -  2) =    -15.29388  eV     1   --> A'             
     e(  3 -  3) =    -12.38741  eV     1   --> A'             
     e(  4 -  4) =     -9.32237  eV     1   --> A'             
     e(  5 -  5) =     -9.30927  eV     1   --> A'             
     e(  6 -  6) =     -5.17273  eV     1   --> A''            
     e(  7 -  7) =     -4.10728  eV     1   --> A'             
     e(  8 -  8) =     -1.09450  eV     1   --> A''            
     e(  9 -  9) =      0.31075  eV     1   --> A''            
     e( 10 - 10) =      3.00534  eV     1   --> A'             
     e( 11 - 11) =      3.26141  eV     1   --> A''            
     e( 12 - 12) =      8.63794  eV     1   --> A'             
     e( 13 - 13) =      8.84045  eV     1   --> A'             
     e( 14 - 14) =      9.54101  eV     1   --> A'             
     e( 15 - 15) =      9.57926  eV     1   --> A''            
     e( 16 - 16) =     10.70709  eV     1   --> A'             
     e( 17 - 17) =     10.81306  eV     1   --> A''            
     e( 18 - 18) =     11.31056  eV     1   --> A'             
     e( 19 - 19) =     11.36446  eV     1   --> A'             
     e( 20 - 20) =     11.47856  eV     1   --> A'             

 **************************************************************************

 **************************************************************************

                    xk=(   0.30000,   0.91400,   0.00000  )

     Band symmetry, C_s (m)     point group:

     e(  1 -  1) =    -19.97712  eV     1   --> A'             
     e(  2 -  2) =    -15.22427  eV     1   --> A'             
     e(  3 -  3) =    -12.41169  eV     1   --> A'             
     e(  4 -  4) =     -9.43342  eV     1   --> A'             
     e(  5 -  5) =     -9.24514  eV     1   --> A'             
     e(  6 -  6) =     -5.18717  eV     1   --> A''            
     e(  7 -  7) =     -4.20577  eV     1   --> A'             
     e(  8 -  8) =     -1.05663  eV     1   --> A''            
     e(  9 -  9) =      0.24621  eV     1   --> A''            
     e( 10 - 10) =      3.26904  eV     1   --> A'             
     e( 11 - 11) =      3.40733  eV     1   --> A''            
     e( 12 - 12) =      8.57438  eV     1   --> A'             
     e( 13 - 13) =      8.68914  eV     1   --> A'             
     e( 14 - 14) =      9.44037  eV     1   --> A''            
     e( 15 - 15) =      9.64289  eV     1   --> A'             
     e( 16 - 16) =     10.65890  eV     1   --> A''            
     e( 17 - 17) =     10.66283  eV     1   --> A'             
     e( 18 - 18) =     11.24893  eV     1   --> A'             
     e( 19 - 19) =     11.36015  eV     1   --> A'             
     e( 20 - 20) =     11.70993  eV     1   --> A'             

 **************************************************************************

 **************************************************************************

                    xk=(   0.26667,   0.91400,   0.00000  )

     Band symmetry, C_s (m)     point group:

     e(  1 -  1) =    -19.99271  eV     1   --> A'             
     e(  2 -  2) =    -15.14777  eV     1   --> A'             
     e(  3 -  3) =    -12.43686  eV     1   --> A'             
     e(  4 -  4) =     -9.56575  eV     1   --> A'             
     e(  5 -  5) =     -9.16200  eV     1   --> A'             
     e(  6 -  6) =     -5.20240  eV     1   --> A''            
     e(  7 -  7) =     -4.31260  eV     1   --> A'             
     e(  8 -  8) =     -1.01603  eV     1   --> A''            
     e(  9 -  9) =      0.18198  eV     1   --> A''            
     e( 10 - 10) =      3.56223  eV     1   --> A''            
     e( 11 - 11) =      3.56831  eV     1   --> A'             
     e( 12 - 12) =      8.49385  eV     1   --> A'             
     e( 13 - 13) =      8.54971  eV     1   --> A'             
     e( 14 - 14) =      9.30919  eV     1   --> A''            
     e( 15 - 15) =      9.79300  eV     1   --> A'             
     e( 16 - 16) =     10.50288  eV     1   --> A'             
     e( 17 - 17) =     10.51664  eV     1   --> A''            
     e( 18 - 18) =     11.13520  eV     1   --> A'             
     e( 19 - 19) =     11.36222  eV     1   --> A'             
     e( 20 - 20) =     12.02605  eV     1   --> A'             

 **************************************************************************

 **************************************************************************

                    xk=(   0.23333,   0.91400,   0.00000  )

     Band symmetry, C_s (m)     point group:

     e(  1 -  1) =    -20.00842  eV     1   --> A'             
     e(  2 -  2) =    -15.06722  eV     1   --> A'             
     e(  3 -  3) =    -12.46178  eV     1   --> A'             
     e(  4 -  4) =     -9.70179  eV     1   --> A'             
     e(  5 -  5) =     -9.07517  eV     1   --> A'             
     e(  6 -  6) =     -5.21776  eV     1   --> A''            
     e(  7 -  7) =     -4.42359  eV     1   --> A'             
     e(  8 -  8) =     -0.97447  eV     1   --> A''            
     e(  9 -  9) =      0.12068  eV     1   --> A''            
     e( 10 - 10) =      3.72040  eV     1   --> A''            
     e( 11 - 11) =      3.89806  eV     1   --> A'             
     e( 12 - 12) =      8.40942  eV     1   --> A'             
     e( 13 - 13) =      8.42114  eV     1   --> A'             
     e( 14 - 14) =      9.18838  eV     1   --> A''            
     e( 15 - 15) =      9.97025  eV     1   --> A'             
     e( 16 - 16) =     10.27248  eV     1   --> A'             
     e( 17 - 17) =     10.38655  eV     1   --> A''            
     e( 18 - 18) =     11.03490  eV     1   --> A'             
     e( 19 - 19) =     11.31212  eV     1   --> A'             
     e( 20 - 20) =     12.12665  eV     1   --> A''            

 **************************************************************************

 **************************************************************************

                    xk=(   0.20000,   0.91400,   0.00000  )

     Band symmetry, C_s (m)     point group:

     e(  1 -  1) =    -20.02354  eV     1   --> A'             
     e(  2 -  2) =    -14.98584  eV     1   --> A'             
     e(  3 -  3) =    -12.48543  eV     1   --> A'             
     e(  4 -  4) =     -9.83597  eV     1   --> A'             
     e(  5 -  5) =     -8.98808  eV     1   --> A'             
     e(  6 -  6) =     -5.23259  eV     1   --> A''            
     e(  7 -  7) =     -4.53423  eV     1   --> A'             
     e(  8 -  8) =     -0.93375  eV     1   --> A''            
     e(  9 -  9) =      0.06433  eV     1   --> A''            
     e( 10 - 10) =      3.87605  eV     1   --> A''            
     e( 11 - 11) =      4.25271  eV     1   --> A'             
     e( 12 - 12) =      8.29976  eV     1   --> A'             
     e( 13 - 13) =      8.33018  eV     1   --> A'             
     e( 14 - 14) =      9.07992  eV     1   --> A''            
     e( 15 - 15) =      9.99292  eV     1   --> A'             
     e( 16 - 16) =     10.15656  eV     1   --> A'             
     e( 17 - 17) =     10.26902  eV     1   --> A''            
     e( 18 - 18) =     10.95550  eV     1   --> A'             
     e( 19 - 19) =     11.22329  eV     1   --> A'             
     e( 20 - 20) =     12.15644  eV     1   --> A''            

 **************************************************************************

 **************************************************************************

                    xk=(   0.16667,   0.91400,   0.00000  )

     Band symmetry, C_s (m)     point group:

     e(  1 -  1) =    -20.03747  eV     1   --> A'             
     e(  2 -  2) =    -14.90723  eV     1   --> A'             
     e(  3 -  3) =    -12.50691  eV     1   --> A'             
     e(  4 -  4) =     -9.96264  eV     1   --> A'             
     e(  5 -  5) =     -8.90446  eV     1   --> A'             
     e(  6 -  6) =     -5.24625  eV     1   --> A''            
     e(  7 -  7) =     -4.63977  eV     1   --> A'             
     e(  8 -  8) =     -0.89565  eV     1   --> A''            
     e(  9 -  9) =      0.01451  eV     1   --> A''            
     e( 10 - 10) =      4.02320  eV     1   --> A''            
     e( 11 - 11) =      4.62589  eV     1   --> A'             
     e( 12 - 12) =      8.18240  eV     1   --> A'             
     e( 13 - 13) =      8.25892  eV     1   --> A'             
     e( 14 - 14) =      8.98540  eV     1   --> A''            
     e( 15 - 15) =      9.68325  eV     1   --> A'             
     e( 16 - 16) =     10.16479  eV     1   --> A''            
     e( 17 - 17) =     10.32871  eV     1   --> A'             
     e( 18 - 18) =     10.90627  eV     1   --> A'             
     e( 19 - 19) =     11.12687  eV     1   --> A'             
     e( 20 - 20) =     12.15860  eV     1   --> A''            

 **************************************************************************

 **************************************************************************

                    xk=(   0.13333,   0.91400,   0.00000  )

     Band symmetry, C_s (m)     point group:

     e(  1 -  1) =    -20.04965  eV     1   --> A'             
     e(  2 -  2) =    -14.83524  eV     1   --> A'             
     e(  3 -  3) =    -12.52547  eV     1   --> A'             
     e(  4 -  4) =    -10.07625  eV     1   --> A'             
     e(  5 -  5) =     -8.82823  eV     1   --> A'             
     e(  6 -  6) =     -5.25821  eV     1   --> A''            
     e(  7 -  7) =     -4.73532  eV     1   --> A'             
     e(  8 -  8) =     -0.86184  eV     1   --> A''            
     e(  9 -  9) =     -0.02761  eV     1   --> A''            
     e( 10 - 10) =      4.15567  eV     1   --> A''            
     e( 11 - 11) =      5.00951  eV     1   --> A'             
     e( 12 - 12) =      8.05976  eV     1   --> A'             
     e( 13 - 13) =      8.19874  eV     1   --> A'             
     e( 14 - 14) =      8.90614  eV     1   --> A''            
     e( 15 - 15) =      9.36601  eV     1   --> A'             
     e( 16 - 16) =     10.07506  eV     1   --> A''            
     e( 17 - 17) =     10.45786  eV     1   --> A'             
     e( 18 - 18) =     10.90481  eV     1   --> A'             
     e( 19 - 19) =     11.04099  eV     1   --> A'             
     e( 20 - 20) =     12.14418  eV     1   --> A''            

 **************************************************************************

 **************************************************************************

                    xk=(   0.10000,   0.91400,   0.00000  )

     Band symmetry, C_s (m)     point group:

     e(  1 -  1) =    -20.05962  eV     1   --> A'             
     e(  2 -  2) =    -14.77382  eV     1   --> A'             
     e(  3 -  3) =    -12.54052  eV     1   --> A'             
     e(  4 -  4) =    -10.17145  eV     1   --> A'             
     e(  5 -  5) =     -8.76341  eV     1   --> A'             
     e(  6 -  6) =     -5.26801  eV     1   --> A''            
     e(  7 -  7) =     -4.81607  eV     1   --> A'             
     e(  8 -  8) =     -0.83381  eV     1   --> A''            
     e(  9 -  9) =     -0.06118  eV     1   --> A''            
     e( 10 - 10) =      4.26725  eV     1   --> A''            
     e( 11 - 11) =      5.39153  eV     1   --> A'             
     e( 12 - 12) =      7.91824  eV     1   --> A'             
     e( 13 - 13) =      8.15097  eV     1   --> A'             
     e( 14 - 14) =      8.84326  eV     1   --> A''            
     e( 15 - 15) =      9.07404  eV     1   --> A'             
     e( 16 - 16) =     10.00161  eV     1   --> A''            
     e( 17 - 17) =     10.52017  eV     1   --> A'             
     e( 18 - 18) =     10.96182  eV     1   --> A'             
     e( 19 - 19) =     10.97261  eV     1   --> A'             
     e( 20 - 20) =     12.12295  eV     1   --> A''            

 **************************************************************************

 **************************************************************************

                    xk=(   0.06667,   0.91400,   0.00000  )

     Band symmetry, C_s (m)     point group:

     e(  1 -  1) =    -20.06700  eV     1   --> A'             
     e(  2 -  2) =    -14.72670  eV     1   --> A'             
     e(  3 -  3) =    -12.55158  eV     1   --> A'             
     e(  4 -  4) =    -10.24345  eV     1   --> A'             
     e(  5 -  5) =     -8.71378  eV     1   --> A'             
     e(  6 -  6) =     -5.27528  eV     1   --> A''            
     e(  7 -  7) =     -4.87756  eV     1   --> A'             
     e(  8 -  8) =     -0.81283  eV     1   --> A''            
     e(  9 -  9) =     -0.08557  eV     1   --> A''            
     e( 10 - 10) =      4.35208  eV     1   --> A''            
     e( 11 - 11) =      5.75041  eV     1   --> A'             
     e( 12 - 12) =      7.74710  eV     1   --> A'             
     e( 13 - 13) =      8.11640  eV     1   --> A'             
     e( 14 - 14) =      8.79767  eV     1   --> A''            
     e( 15 - 15) =      8.84561  eV     1   --> A'             
     e( 16 - 16) =      9.94666  eV     1   --> A''            
     e( 17 - 17) =     10.53477  eV     1   --> A'             
     e( 18 - 18) =     10.92367  eV     1   --> A'             
     e( 19 - 19) =     11.04513  eV     1   --> A'             
     e( 20 - 20) =     12.09066  eV     1   --> A''            

 **************************************************************************

 **************************************************************************

                    xk=(   0.03333,   0.91400,   0.00000  )

     Band symmetry, C_s (m)     point group:

     e(  1 -  1) =    -20.07154  eV     1   --> A'             
     e(  2 -  2) =    -14.69700  eV     1   --> A'             
     e(  3 -  3) =    -12.55835  eV     1   --> A'             
     e(  4 -  4) =    -10.28836  eV     1   --> A'             
     e(  5 -  5) =     -8.68255  eV     1   --> A'             
     e(  6 -  6) =     -5.27975  eV     1   --> A''            
     e(  7 -  7) =     -4.91611  eV     1   --> A'             
     e(  8 -  8) =     -0.79985  eV     1   --> A''            
     e(  9 -  9) =     -0.10037  eV     1   --> A''            
     e( 10 - 10) =      4.40522  eV     1   --> A''            
     e( 11 - 11) =      6.03909  eV     1   --> A'             
     e( 12 - 12) =      7.57080  eV     1   --> A'             
     e( 13 - 13) =      8.09550  eV     1   --> A'             
     e( 14 - 14) =      8.70735  eV     1   --> A'             
     e( 15 - 15) =      8.77004  eV     1   --> A''            
     e( 16 - 16) =      9.91249  eV     1   --> A''            
     e( 17 - 17) =     10.53368  eV     1   --> A'             
     e( 18 - 18) =     10.89441  eV     1   --> A'             
     e( 19 - 19) =     11.11082  eV     1   --> A'             
     e( 20 - 20) =     12.02655  eV     1   --> A''            

 **************************************************************************

 **************************************************************************

                    xk=(   0.00000,   0.91400,   0.00000  )

     Band symmetry, C_s (m)     point group:

     e(  1 -  1) =    -20.07307  eV     1   --> A'             
     e(  2 -  2) =    -14.68686  eV     1   --> A'             
     e(  3 -  3) =    -12.56063  eV     1   --> A'             
     e(  4 -  4) =    -10.30363  eV     1   --> A'             
     e(  5 -  5) =     -8.67188  eV     1   --> A'             
[...]
     e(  4 -  4) =     -9.08122  eV     1   --> A'             
     e(  5 -  5) =     -7.13500  eV     1   --> A''            
     e(  6 -  6) =     -6.15556  eV     1   --> A'             
     e(  7 -  7) =     -4.07367  eV     1   --> A'             
     e(  8 -  8) =     -3.45681  eV     1   --> A''            
     e(  9 -  9) =      2.10002  eV     1   --> A''            
     e( 10 - 10) =      3.43878  eV     1   --> A'             
     e( 11 - 11) =      5.41550  eV     1   --> A''            
     e( 12 - 12) =      5.47156  eV     1   --> A'             
     e( 13 - 13) =      6.02406  eV     1   --> A'             
     e( 14 - 14) =      7.19701  eV     1   --> A''            
     e( 15 - 15) =      7.54244  eV     1   --> A'             
     e( 16 - 16) =      9.40386  eV     1   --> A''            
     e( 17 - 17) =      9.67493  eV     1   --> A'             
     e( 18 - 18) =     10.07072  eV     1   --> A'             
     e( 19 - 19) =     10.18737  eV     1   --> A'             
     e( 20 - 20) =     11.10667  eV     1   --> A''            

 **************************************************************************

 **************************************************************************

                    xk=(   0.22500,   0.41130,   0.00000  )

     Band symmetry, C_s (m)     point group:

     e(  1 -  1) =    -21.11939  eV     1   --> A'             
     e(  2 -  2) =    -16.01162  eV     1   --> A'             
     e(  3 -  3) =    -10.51205  eV     1   --> A'             
     e(  4 -  4) =     -9.43768  eV     1   --> A'             
     e(  5 -  5) =     -6.93219  eV     1   --> A''            
     e(  6 -  6) =     -6.54963  eV     1   --> A'             
     e(  7 -  7) =     -4.22707  eV     1   --> A'             
     e(  8 -  8) =     -3.38056  eV     1   --> A''            
     e(  9 -  9) =      2.18140  eV     1   --> A''            
     e( 10 - 10) =      3.76807  eV     1   --> A'             
     e( 11 - 11) =      5.35574  eV     1   --> A'             
     e( 12 - 12) =      5.68336  eV     1   --> A''            
     e( 13 - 13) =      6.33905  eV     1   --> A'             
     e( 14 - 14) =      6.81154  eV     1   --> A''            
     e( 15 - 15) =      7.53229  eV     1   --> A'             
     e( 16 - 16) =      9.30584  eV     1   --> A''            
     e( 17 - 17) =      9.75683  eV     1   --> A'             
     e( 18 - 18) =     10.40182  eV     1   --> A'             
     e( 19 - 19) =     10.61331  eV     1   --> A'             
     e( 20 - 20) =     11.38570  eV     1   --> A''            

 **************************************************************************

 **************************************************************************

                    xk=(   0.25000,   0.45700,   0.00000  )

     Band symmetry, C_s (m)     point group:

     e(  1 -  1) =    -20.98317  eV     1   --> A'             
     e(  2 -  2) =    -15.97253  eV     1   --> A'             
     e(  3 -  3) =    -10.37384  eV     1   --> A'             
     e(  4 -  4) =     -9.72758  eV     1   --> A'             
     e(  5 -  5) =     -6.94896  eV     1   --> A'             
     e(  6 -  6) =     -6.71634  eV     1   --> A''            
     e(  7 -  7) =     -4.34967  eV     1   --> A'             
     e(  8 -  8) =     -3.28149  eV     1   --> A''            
     e(  9 -  9) =      2.22387  eV     1   --> A''            
     e( 10 - 10) =      4.13305  eV     1   --> A'             
     e( 11 - 11) =      5.15504  eV     1   --> A'             
     e( 12 - 12) =      5.89368  eV     1   --> A''            
     e( 13 - 13) =      6.47998  eV     1   --> A''            
     e( 14 - 14) =      6.69493  eV     1   --> A'             
     e( 15 - 15) =      7.55720  eV     1   --> A'             
     e( 16 - 16) =      9.24880  eV     1   --> A''            
     e( 17 - 17) =      9.81568  eV     1   --> A'             
     e( 18 - 18) =     10.70117  eV     1   --> A'             
     e( 19 - 19) =     11.10393  eV     1   --> A'             
     e( 20 - 20) =     11.66110  eV     1   --> A''            

 **************************************************************************

 **************************************************************************

                    xk=(   0.27500,   0.50270,   0.00000  )

     Band symmetry, C_s (m)     point group:

     e(  1 -  1) =    -20.84074  eV     1   --> A'             
     e(  2 -  2) =    -15.92445  eV     1   --> A'             
     e(  3 -  3) =    -10.46109  eV     1   --> A'             
     e(  4 -  4) =     -9.79181  eV     1   --> A'             
     e(  5 -  5) =     -7.34530  eV     1   --> A'             
     e(  6 -  6) =     -6.49206  eV     1   --> A''            
     e(  7 -  7) =     -4.43390  eV     1   --> A'             
     e(  8 -  8) =     -3.15669  eV     1   --> A''            
     e(  9 -  9) =      2.21817  eV     1   --> A''            
     e( 10 - 10) =      4.52896  eV     1   --> A'             
     e( 11 - 11) =      4.89443  eV     1   --> A'             
     e( 12 - 12) =      5.71923  eV     1   --> A''            
     e( 13 - 13) =      6.53915  eV     1   --> A''            
     e( 14 - 14) =      7.08069  eV     1   --> A'             
     e( 15 - 15) =      7.62129  eV     1   --> A'             
     e( 16 - 16) =      9.24037  eV     1   --> A''            
     e( 17 - 17) =      9.86796  eV     1   --> A'             
     e( 18 - 18) =     10.99947  eV     1   --> A'             
     e( 19 - 19) =     11.31048  eV     1   --> A'             
     e( 20 - 20) =     11.76888  eV     1   --> A''            

 **************************************************************************

 **************************************************************************

                    xk=(   0.30000,   0.54840,   0.00000  )

     Band symmetry, C_s (m)     point group:

     e(  1 -  1) =    -20.69510  eV     1   --> A'             
     e(  2 -  2) =    -15.86832  eV     1   --> A'             
     e(  3 -  3) =    -10.74089  eV     1   --> A'             
     e(  4 -  4) =     -9.66450  eV     1   --> A'             
     e(  5 -  5) =     -7.73064  eV     1   --> A'             
     e(  6 -  6) =     -6.26492  eV     1   --> A''            
     e(  7 -  7) =     -4.47405  eV     1   --> A'             
     e(  8 -  8) =     -3.00349  eV     1   --> A''            
     e(  9 -  9) =      2.15894  eV     1   --> A''            
     e( 10 - 10) =      4.55969  eV     1   --> A'             
     e( 11 - 11) =      4.98612  eV     1   --> A'             
     e( 12 - 12) =      5.29015  eV     1   --> A''            
     e( 13 - 13) =      6.87136  eV     1   --> A''            
     e( 14 - 14) =      7.46982  eV     1   --> A'             
     e( 15 - 15) =      7.74797  eV     1   --> A'             
     e( 16 - 16) =      9.28357  eV     1   --> A''            
     e( 17 - 17) =      9.91079  eV     1   --> A'             
     e( 18 - 18) =     11.02244  eV     1   --> A'             
     e( 19 - 19) =     11.45764  eV     1   --> A'             
     e( 20 - 20) =     11.82511  eV     1   --> A''            

 **************************************************************************

 **************************************************************************

                    xk=(   0.32500,   0.59410,   0.00000  )

     Band symmetry, C_s (m)     point group:

     e(  1 -  1) =    -20.54978  eV     1   --> A'             
     e(  2 -  2) =    -15.80581  eV     1   --> A'             
     e(  3 -  3) =    -11.05493  eV     1   --> A'             
     e(  4 -  4) =     -9.50462  eV     1   --> A'             
     e(  5 -  5) =     -8.09718  eV     1   --> A'             
     e(  6 -  6) =     -6.04131  eV     1   --> A''            
     e(  7 -  7) =     -4.46724  eV     1   --> A'             
     e(  8 -  8) =     -2.81975  eV     1   --> A''            
     e(  9 -  9) =      2.04516  eV     1   --> A''            
     e( 10 - 10) =      4.21575  eV     1   --> A'             
     e( 11 - 11) =      4.82434  eV     1   --> A''            
     e( 12 - 12) =      5.45425  eV     1   --> A'             
     e( 13 - 13) =      7.27297  eV     1   --> A''            
     e( 14 - 14) =      7.74156  eV     1   --> A'             
     e( 15 - 15) =      8.05436  eV     1   --> A'             
     e( 16 - 16) =      9.37765  eV     1   --> A''            
     e( 17 - 17) =      9.92398  eV     1   --> A'             
     e( 18 - 18) =     10.88922  eV     1   --> A'             
     e( 19 - 19) =     11.73043  eV     1   --> A'             
     e( 20 - 20) =     11.90882  eV     1   --> A''            

 **************************************************************************

 **************************************************************************

                    xk=(   0.35000,   0.63980,   0.00000  )

     Band symmetry, C_s (m)     point group:

     e(  1 -  1) =    -20.40884  eV     1   --> A'             
     e(  2 -  2) =    -15.73936  eV     1   --> A'             
     e(  3 -  3) =    -11.35673  eV     1   --> A'             
     e(  4 -  4) =     -9.35763  eV     1   --> A'             
     e(  5 -  5) =     -8.43712  eV     1   --> A'             
     e(  6 -  6) =     -5.82823  eV     1   --> A''            
     e(  7 -  7) =     -4.41473  eV     1   --> A'             
     e(  8 -  8) =     -2.60436  eV     1   --> A''            
     e(  9 -  9) =      1.87916  eV     1   --> A''            
     e( 10 - 10) =      3.84934  eV     1   --> A'             
     e( 11 - 11) =      4.36603  eV     1   --> A''            
     e( 12 - 12) =      5.96123  eV     1   --> A'             
     e( 13 - 13) =      7.71502  eV     1   --> A''            
     e( 14 - 14) =      7.92197  eV     1   --> A'             
     e( 15 - 15) =      8.50594  eV     1   --> A'             
     e( 16 - 16) =      9.51929  eV     1   --> A''            
     e( 17 - 17) =      9.88840  eV     1   --> A'             
     e( 18 - 18) =     10.84731  eV     1   --> A'             
     e( 19 - 19) =     11.90834  eV     1   --> A'             
     e( 20 - 20) =     12.00643  eV     1   --> A''            

 **************************************************************************

 **************************************************************************

                    xk=(   0.37500,   0.68550,   0.00000  )

     Band symmetry, C_s (m)     point group:

     e(  1 -  1) =    -20.27690  eV     1   --> A'             
     e(  2 -  2) =    -15.67219  eV     1   --> A'             
     e(  3 -  3) =    -11.63071  eV     1   --> A'             
     e(  4 -  4) =     -9.23579  eV     1   --> A'             
     e(  5 -  5) =     -8.74242  eV     1   --> A'             
     e(  6 -  6) =     -5.63293  eV     1   --> A''            
     e(  7 -  7) =     -4.32304  eV     1   --> A'             
     e(  8 -  8) =     -2.35818  eV     1   --> A''            
     e(  9 -  9) =      1.66527  eV     1   --> A''            
     e( 10 - 10) =      3.48148  eV     1   --> A'             
     e( 11 - 11) =      3.93928  eV     1   --> A''            
     e( 12 - 12) =      6.50128  eV     1   --> A'             
     e( 13 - 13) =      8.11020  eV     1   --> A'             
     e( 14 - 14) =      8.18870  eV     1   --> A''            
     e( 15 - 15) =      8.97496  eV     1   --> A'             
     e( 16 - 16) =      9.70426  eV     1   --> A''            
     e( 17 - 17) =      9.84187  eV     1   --> A'             
     e( 18 - 18) =     10.92008  eV     1   --> A'             
     e( 19 - 19) =     11.84523  eV     1   --> A'             
     e( 20 - 20) =     12.08613  eV     1   --> A''            

 **************************************************************************

 **************************************************************************

                    xk=(   0.40000,   0.73120,   0.00000  )

     Band symmetry, C_s (m)     point group:

     e(  1 -  1) =    -20.15892  eV     1   --> A'             
     e(  2 -  2) =    -15.60818  eV     1   --> A'             
     e(  3 -  3) =    -11.86764  eV     1   --> A'             
     e(  4 -  4) =     -9.14536  eV     1   --> A'             
     e(  5 -  5) =     -9.00198  eV     1   --> A'             
     e(  6 -  6) =     -5.46236  eV     1   --> A''            
     e(  7 -  7) =     -4.20460  eV     1   --> A'             
     e(  8 -  8) =     -2.08556  eV     1   --> A''            
     e(  9 -  9) =      1.41004  eV     1   --> A''            
     e( 10 - 10) =      3.13219  eV     1   --> A'             
     e( 11 - 11) =      3.56524  eV     1   --> A''            
     e( 12 - 12) =      7.06941  eV     1   --> A'             
     e( 13 - 13) =      8.31779  eV     1   --> A'             
     e( 14 - 14) =      8.68461  eV     1   --> A''            
     e( 15 - 15) =      9.32522  eV     1   --> A'             
     e( 16 - 16) =      9.92941  eV     1   --> A''            
     e( 17 - 17) =      9.94848  eV     1   --> A'             
     e( 18 - 18) =     11.07296  eV     1   --> A'             
     e( 19 - 19) =     11.53893  eV     1   --> A'             
     e( 20 - 20) =     12.10928  eV     1   --> A''            

 **************************************************************************

 **************************************************************************

                    xk=(   0.42500,   0.77690,   0.00000  )

     Band symmetry, C_s (m)     point group:

     e(  1 -  1) =    -20.06007  eV     1   --> A'             
     e(  2 -  2) =    -15.55173  eV     1   --> A'             
     e(  3 -  3) =    -12.06035  eV     1   --> A'             
     e(  4 -  4) =     -9.23009  eV     1   --> A'             
     e(  5 -  5) =     -9.06345  eV     1   --> A'             
     e(  6 -  6) =     -5.32275  eV     1   --> A''            
     e(  7 -  7) =     -4.07731  eV     1   --> A'             
     e(  8 -  8) =     -1.79705  eV     1   --> A''            
     e(  9 -  9) =      1.12599  eV     1   --> A''            
     e( 10 - 10) =      2.82352  eV     1   --> A'             
     e( 11 - 11) =      3.26190  eV     1   --> A''            
     e( 12 - 12) =      7.65242  eV     1   --> A'             
     e( 13 - 13) =      8.54160  eV     1   --> A'             
     e( 14 - 14) =      9.18449  eV     1   --> A''            
     e( 15 - 15) =      9.43004  eV     1   --> A'             
     e( 16 - 16) =     10.19596  eV     1   --> A''            
     e( 17 - 17) =     10.36887  eV     1   --> A'             
     e( 18 - 18) =     11.09841  eV     1   --> A'             
     e( 19 - 19) =     11.32303  eV     1   --> A'             
     e( 20 - 20) =     12.01007  eV     1   --> A'             

 **************************************************************************

 **************************************************************************

                    xk=(   0.45000,   0.82260,   0.00000  )

     Band symmetry, C_s (m)     point group:

     e(  1 -  1) =    -19.98520  eV     1   --> A'             
     e(  2 -  2) =    -15.50729  eV     1   --> A'             
     e(  3 -  3) =    -12.20284  eV     1   --> A'             
     e(  4 -  4) =     -9.38651  eV     1   --> A'             
     e(  5 -  5) =     -9.02056  eV     1   --> A'             
     e(  6 -  6) =     -5.21920  eV     1   --> A''            
     e(  7 -  7) =     -3.96275  eV     1   --> A'             
     e(  8 -  8) =     -1.51526  eV     1   --> A''            
     e(  9 -  9) =      0.83984  eV     1   --> A''            
     e( 10 - 10) =      2.57896  eV     1   --> A'             
     e( 11 - 11) =      3.04115  eV     1   --> A''            
     e( 12 - 12) =      8.19673  eV     1   --> A'             
     e( 13 - 13) =      8.79912  eV     1   --> A'             
     e( 14 - 14) =      9.50293  eV     1   --> A'             
     e( 15 - 15) =      9.64682  eV     1   --> A''            
     e( 16 - 16) =     10.51610  eV     1   --> A''            
     e( 17 - 17) =     10.65042  eV     1   --> A'             
     e( 18 - 18) =     10.98104  eV     1   --> A'             
     e( 19 - 19) =     11.30440  eV     1   --> A'             
     e( 20 - 20) =     11.64245  eV     1   --> A'             

 **************************************************************************

 **************************************************************************

                    xk=(   0.47500,   0.86830,   0.00000  )

     Band symmetry, C_s (m)     point group:

     e(  1 -  1) =    -19.93844  eV     1   --> A'             
     e(  2 -  2) =    -15.47878  eV     1   --> A'             
     e(  3 -  3) =    -12.29038  eV     1   --> A'             
     e(  4 -  4) =     -9.48415  eV     1   --> A'             
     e(  5 -  5) =     -8.99507  eV     1   --> A'             
     e(  6 -  6) =     -5.15551  eV     1   --> A''            
     e(  7 -  7) =     -3.88270  eV     1   --> A'             
     e(  8 -  8) =     -1.28728  eV     1   --> A''            
     e(  9 -  9) =      0.60515  eV     1   --> A''            
     e( 10 - 10) =      2.42087  eV     1   --> A'             
     e( 11 - 11) =      2.90812  eV     1   --> A''            
     e( 12 - 12) =      8.52665  eV     1   --> A'             
     e( 13 - 13) =      9.21934  eV     1   --> A'             
     e( 14 - 14) =      9.66302  eV     1   --> A'             
     e( 15 - 15) =      9.98970  eV     1   --> A''            
     e( 16 - 16) =     10.26762  eV     1   --> A'             
     e( 17 - 17) =     10.67025  eV     1   --> A'             
     e( 18 - 18) =     10.90759  eV     1   --> A''            
     e( 19 - 19) =     11.54755  eV     1   --> A'             
     e( 20 - 20) =     11.77740  eV     1   --> A''            

 **************************************************************************

 **************************************************************************

                    xk=(   0.50000,   0.91400,   0.00000  )

     Band symmetry, C_s (m)     point group:

     e(  1 -  1) =    -19.92252  eV     1   --> A'             
     e(  2 -  2) =    -15.46895  eV     1   --> A'             
     e(  3 -  3) =    -12.31992  eV     1   --> A'             
     e(  4 -  4) =     -9.51720  eV     1   --> A'             
     e(  5 -  5) =     -8.98678  eV     1   --> A'             
     e(  6 -  6) =     -5.13401  eV     1   --> A''            
     e(  7 -  7) =     -3.85389  eV     1   --> A'             
     e(  8 -  8) =     -1.19358  eV     1   --> A''            
     e(  9 -  9) =      0.50841  eV     1   --> A''            
     e( 10 - 10) =      2.36606  eV     1   --> A'             
     e( 11 - 11) =      2.86381  eV     1   --> A''            
     e( 12 - 12) =      8.60659  eV     1   --> A'             
     e( 13 - 13) =      9.73690  eV     1   --> A'             
     e( 14 - 14) =      9.82599  eV     1   --> A'             
     e( 15 - 15) =      9.85173  eV     1   --> A'             
     e( 16 - 16) =     10.11817  eV     1   --> A''            
     e( 17 - 17) =     10.27020  eV     1   --> A'             
     e( 18 - 18) =     11.21589  eV     1   --> A''            
     e( 19 - 19) =     11.74084  eV     1   --> A''            
     e( 20 - 20) =     11.75567  eV     1   --> A''            

 **************************************************************************

     BANDS        :     24.34s CPU     29.27s WALL


   This run was terminated on:  16:13: 6  27May2023            

=------------------------------------------------------------------------------=
   JOB DONE.
=------------------------------------------------------------------------------=
