
     Program PWSCF v.7.2 starts on 28May2023 at  0: 6:39 

     This program is part of the open-source Quantum ESPRESSO suite
     for quantum simulation of materials; please cite
         "P. Giannozzi et al., J. Phys.:Condens. Matter 21 395502 (2009);
         "P. Giannozzi et al., J. Phys.:Condens. Matter 29 465901 (2017);
         "P. Giannozzi et al., J. Chem. Phys. 152 154105 (2020);
          URL http://www.quantum-espresso.org", 
     in publications or presentations arising from this work. More details at
     http://www.quantum-espresso.org/quote

     Parallel version (MPI), running on     1 processors

     MPI processes distributed on     1 nodes
     441 MiB available memory on the printing compute node when the environment starts

     Reading input from b2n2.ecut.in

     Current dimensions of program PWSCF are:
     Max number of different atomic species (ntypx) = 10
     Max number of k-points (npk) =  40000
     Max angular momentum in pseudopotentials (lmaxx) =  4
     file N.pbe-n-kjpaw_psl.1.0.0.UPF: wavefunction(s)  2S renormalized

     Subspace diagonalization in iterative solution of the eigenvalue problem:
     a serial algorithm will be used


     G-vector sticks info
     --------------------
     sticks:   dense  smooth     PW     G-vecs:    dense   smooth      PW
     Sum        1951     655    191               191353    36863    5897

     Using Slab Decomposition



     bravais-lattice index     =            8
     lattice parameter (alat)  =       8.6360  a.u.
     unit-cell volume          =     770.9972 (a.u.)^3
     number of atoms/cell      =            4
     number of atomic types    =            2
     number of electrons       =        16.00
     number of Kohn-Sham states=            8
     kinetic-energy cutoff     =      50.0000  Ry
     charge density cutoff     =     600.0000  Ry
     scf convergence threshold =      1.0E-08
     mixing beta               =       0.7000
     number of iterations used =            8  plain     mixing
     Exchange-correlation= SLA  PW   PBX  PBC
                           (   1   4   3   4   0   0   0)

     celldm(1)=   8.636048  celldm(2)=   0.547046  celldm(3)=   2.188184
     celldm(4)=   0.000000  celldm(5)=   0.000000  celldm(6)=   0.000000

     crystal axes: (cart. coord. in units of alat)
               a(1) = (   1.000000   0.000000   0.000000 )  
               a(2) = (   0.000000   0.547046   0.000000 )  
               a(3) = (   0.000000   0.000000   2.188184 )  

     reciprocal axes: (cart. coord. in units 2 pi/alat)
               b(1) = (  1.000000  0.000000  0.000000 )  
               b(2) = (  0.000000  1.828000  0.000000 )  
               b(3) = (  0.000000  0.000000  0.457000 )  


     PseudoPot. # 1 for B  read from file:
     ../B.pbe-n-kjpaw_psl.1.0.0.UPF
     MD5 check sum: 8c825a5969375aca5c2c6ad5945b3059
     Pseudo is Projector augmented-wave + core cor, Zval =  3.0
     Generated using &quot;atomic&quot; code by A. Dal Corso  v.6.3
     Shape of augmentation charge: PSQ
     Using radial grid of 1059 points,  4 beta functions with: 
                l(1) =   0
                l(2) =   0
                l(3) =   1
                l(4) =   1
     Q(r) pseudized with 0 coefficients 


     PseudoPot. # 2 for N  read from file:
     ../N.pbe-n-kjpaw_psl.1.0.0.UPF
     MD5 check sum: 14c48229446f9f2d411169a3abcbc3fa
     Pseudo is Projector augmented-wave + core cor, Zval =  5.0
     Generated using &quot;atomic&quot; code by A. Dal Corso  v.6.3
     Shape of augmentation charge: PSQ
     Using radial grid of 1085 points,  4 beta functions with: 
                l(1) =   0
                l(2) =   0
                l(3) =   1
                l(4) =   1
     Q(r) pseudized with 0 coefficients 


     atomic species   valence    mass     pseudopotential
        B              3.00    10.81100     B ( 1.00)
        N              5.00    14.00670     N ( 1.00)

      2 Sym. Ops. (no inversion) found



   Cartesian axes

     site n.     atom                  positions (alat units)
         1           B   tau(   1) = (   0.1859956   0.4093249   0.0000000  )
         2           B   tau(   2) = (   0.8161926   0.4093249   0.0000000  )
         3           N   tau(   3) = (   0.3435449   0.1367615   0.0000000  )
         4           N   tau(   4) = (   0.6586433   0.1367615   0.0000000  )

     number of k points=    13
                       cart. coord. in units 2pi/alat
        k(    1) = (   0.0000000   0.0000000   0.0000000), wk =   0.0800000
        k(    2) = (   0.0000000   0.3656000   0.0000000), wk =   0.1600000
        k(    3) = (   0.0000000   0.7312000   0.0000000), wk =   0.1600000
        k(    4) = (   0.2000000   0.0000000   0.0000000), wk =   0.1600000
        k(    5) = (   0.2000000   0.3656000   0.0000000), wk =   0.1600000
        k(    6) = (   0.2000000   0.7312000   0.0000000), wk =   0.1600000
        k(    7) = (   0.4000000   0.0000000   0.0000000), wk =   0.1600000
        k(    8) = (   0.4000000   0.3656000   0.0000000), wk =   0.1600000
        k(    9) = (   0.4000000   0.7312000   0.0000000), wk =   0.1600000
        k(   10) = (  -0.2000000   0.3656000   0.0000000), wk =   0.1600000
        k(   11) = (  -0.2000000   0.7312000   0.0000000), wk =   0.1600000
        k(   12) = (  -0.4000000   0.3656000   0.0000000), wk =   0.1600000
        k(   13) = (  -0.4000000   0.7312000   0.0000000), wk =   0.1600000

     Dense  grid:   191353 G-vectors     FFT dimensions: (  72,  40, 150)

     Smooth grid:    36863 G-vectors     FFT dimensions: (  40,  24,  90)

     Estimated max dynamical RAM per process >     256.52 MB

     Initial potential from superposition of free atoms

     starting charge      15.9994, renormalised to      16.0000

     negative rho (up, down):  1.317E-07 0.000E+00
     Starting wfcs are   16 randomized atomic wfcs
     Checking if some PAW data can be deallocated... 

     total cpu time spent up to now is        3.9 secs

     Self-consistent Calculation

     iteration #  1     ecut=    50.00 Ry     beta= 0.70
     Davidson diagonalization with overlap
     ethr =  1.00E-02,  avg # of iterations =  2.0

     negative rho (up, down):  3.780E-06 0.000E+00

     total cpu time spent up to now is        6.3 secs

     total energy              =     -79.36952735 Ry
     estimated scf accuracy    <       0.49675441 Ry

     iteration #  2     ecut=    50.00 Ry     beta= 0.70
     Davidson diagonalization with overlap
     ethr =  3.10E-03,  avg # of iterations =  3.5

     negative rho (up, down):  3.586E-05 0.000E+00

     total cpu time spent up to now is        8.7 secs

     total energy              =     -79.43319209 Ry
     estimated scf accuracy    <       0.20087852 Ry

     iteration #  3     ecut=    50.00 Ry     beta= 0.70
     Davidson diagonalization with overlap
     ethr =  1.26E-03,  avg # of iterations =  2.9

     negative rho (up, down):  3.271E-05 0.000E+00

     total cpu time spent up to now is       11.0 secs

     total energy              =     -79.48734567 Ry
     estimated scf accuracy    <       0.01817847 Ry

     iteration #  4     ecut=    50.00 Ry     beta= 0.70
     Davidson diagonalization with overlap
     ethr =  1.14E-04,  avg # of iterations =  2.0

     negative rho (up, down):  2.860E-05 0.000E+00

     total cpu time spent up to now is       13.2 secs

     total energy              =     -79.48948965 Ry
     estimated scf accuracy    <       0.00128137 Ry

     iteration #  5     ecut=    50.00 Ry     beta= 0.70
     Davidson diagonalization with overlap
     ethr =  8.01E-06,  avg # of iterations =  3.2

     negative rho (up, down):  3.353E-05 0.000E+00

     total cpu time spent up to now is       15.6 secs

     total energy              =     -79.48991612 Ry
     estimated scf accuracy    <       0.00013075 Ry

     iteration #  6     ecut=    50.00 Ry     beta= 0.70
     Davidson diagonalization with overlap
     ethr =  8.17E-07,  avg # of iterations =  2.9

     negative rho (up, down):  3.319E-05 0.000E+00

     total cpu time spent up to now is       17.8 secs

     total energy              =     -79.48994207 Ry
     estimated scf accuracy    <       0.00000059 Ry

     iteration #  7     ecut=    50.00 Ry     beta= 0.70
     Davidson diagonalization with overlap
     ethr =  3.70E-09,  avg # of iterations =  5.5

     negative rho (up, down):  3.371E-05 0.000E+00

     total cpu time spent up to now is       20.6 secs

     total energy              =     -79.48994228 Ry
     estimated scf accuracy    <       0.00000124 Ry

     iteration #  8     ecut=    50.00 Ry     beta= 0.70
     Davidson diagonalization with overlap
     ethr =  3.70E-09,  avg # of iterations =  3.4

     negative rho (up, down):  3.366E-05 0.000E+00

     total cpu time spent up to now is       23.4 secs

     End of self-consistent calculation

          k = 0.0000 0.0000 0.0000 (  4607 PWs)   bands (ev):

   -21.7839 -16.1010 -11.7892  -7.9773  -7.1085  -4.2311  -3.6148  -2.9502

          k = 0.0000 0.3656 0.0000 (  4589 PWs)   bands (ev):

   -21.3079 -15.7156 -11.3979  -9.1680  -7.2898  -5.9186  -3.5013  -2.9143

          k = 0.0000 0.7312 0.0000 (  4616 PWs)   bands (ev):

   -20.3034 -14.8948 -12.0941 -10.4607  -8.2660  -5.6894  -4.6757  -1.2373

          k = 0.2000 0.0000 0.0000 (  4633 PWs)   bands (ev):

   -21.7356 -16.4687 -11.0136  -7.8134  -7.0160  -4.4087  -4.1895  -3.9395

          k = 0.2000 0.3656 0.0000 (  4600 PWs)   bands (ev):

   -21.2590 -16.0666 -10.7046  -9.0719  -7.1412  -6.1433  -4.0624  -3.4628

          k = 0.2000 0.7312 0.0000 (  4604 PWs)   bands (ev):

   -20.2535 -15.2044 -12.0121  -9.9501  -8.5649  -5.6086  -4.4352  -1.6098

          k = 0.4000 0.0000 0.0000 (  4590 PWs)   bands (ev):

   -21.6520 -16.9522  -9.4867  -7.4588  -6.8390  -5.7534  -5.0528  -4.7165

          k = 0.4000 0.3656 0.0000 (  4611 PWs)   bands (ev):

   -21.1745 -16.5349  -9.4888  -8.8213  -6.8309  -6.5412  -5.2363  -4.2620

          k = 0.4000 0.7312 0.0000 (  4585 PWs)   bands (ev):

   -20.1672 -15.6330 -11.8659  -9.1344  -8.9994  -5.4618  -4.1941  -2.0868

          k =-0.2000 0.3656 0.0000 (  4600 PWs)   bands (ev):

   -21.2590 -16.0666 -10.7046  -9.0719  -7.1412  -6.1433  -4.0624  -3.4628

          k =-0.2000 0.7312 0.0000 (  4604 PWs)   bands (ev):

   -20.2535 -15.2044 -12.0121  -9.9501  -8.5649  -5.6086  -4.4352  -1.6098

          k =-0.4000 0.3656 0.0000 (  4611 PWs)   bands (ev):

   -21.1745 -16.5349  -9.4888  -8.8213  -6.8309  -6.5412  -5.2363  -4.2620

          k =-0.4000 0.7312 0.0000 (  4585 PWs)   bands (ev):

   -20.1672 -15.6330 -11.8659  -9.1344  -8.9994  -5.4618  -4.1941  -2.0868

     highest occupied level (ev):    -1.2373

!    total energy              =     -79.48994254 Ry
     total all-electron energy =      -318.566234 Ry
     estimated scf accuracy    <          4.3E-09 Ry

     The total energy is the sum of the following terms:
     one-electron contribution =    -175.41002465 Ry
     hartree contribution      =      91.99100740 Ry
     xc contribution           =     -17.42030665 Ry
     ewald contribution        =      47.72143132 Ry
     one-center paw contrib.   =     -26.37204996 Ry

     convergence has been achieved in   8 iterations

     init_run     :      3.63s CPU      3.79s WALL (       1 calls)
     electrons    :     17.69s CPU     19.45s WALL (       1 calls)

     Called by init_run:
     wfcinit      :      0.94s CPU      0.94s WALL (       1 calls)
     potinit      :      1.00s CPU      1.06s WALL (       1 calls)
     hinit0       :      1.40s CPU      1.41s WALL (       1 calls)

     Called by electrons:
     c_bands      :      9.92s CPU      9.97s WALL (       8 calls)
     sum_band     :      3.42s CPU      4.22s WALL (       8 calls)
     v_of_rho     :      1.73s CPU      1.87s WALL (       9 calls)
     newd         :      1.83s CPU      2.71s WALL (       9 calls)
     PAW_pot      :      1.05s CPU      1.06s WALL (       9 calls)
     mix_rho      :      0.14s CPU      0.14s WALL (       8 calls)

     Called by c_bands:
     init_us_2    :      0.26s CPU      0.25s WALL (     221 calls)
     init_us_2:cp :      0.25s CPU      0.25s WALL (     221 calls)
     cegterg      :      9.55s CPU      9.59s WALL (     104 calls)

     Called by *egterg:
     cdiaghg      :      0.05s CPU      0.05s WALL (     433 calls)
     h_psi        :      7.58s CPU      7.63s WALL (     446 calls)
     s_psi        :      0.86s CPU      0.87s WALL (     446 calls)
     g_psi        :      0.03s CPU      0.03s WALL (     329 calls)

     Called by h_psi:
     h_psi:calbec :      0.88s CPU      0.88s WALL (     446 calls)
     vloc_psi     :      5.84s CPU      5.87s WALL (     446 calls)
     add_vuspsi   :      0.83s CPU      0.84s WALL (     446 calls)

     General routines
     calbec       :      1.12s CPU      1.13s WALL (     550 calls)
     fft          :      1.17s CPU      1.18s WALL (     115 calls)
     ffts         :      0.33s CPU      0.33s WALL (      17 calls)
     fftw         :      4.30s CPU      4.31s WALL (    6412 calls)
     interpolate  :      0.38s CPU      0.39s WALL (       9 calls)

     Parallel routines

     PWSCF        :     21.47s CPU     23.39s WALL


   This run was terminated on:   0: 7: 2  28May2023            

=------------------------------------------------------------------------------=
   JOB DONE.
=------------------------------------------------------------------------------=
